# vtk DataFile Version 2.0
Exported by getfem++
ASCII
DATASET UNSTRUCTURED_GRID
POINTS 111 float 
-0.02 -0.02 0
0.02 -0.02 0
0.02 0.02 0
-0.02 0.02 0
0.02 0.02 0.3
0.02 -0.02 0.3
-0.02 -0.02 0.3
-0.02 0.02 0.3
-5.0813520058313e-14 0.02 0
0.02 5.0813520058313e-14 0
5.0813520058313e-14 -0.02 0
-0.02 -5.0813520058313e-14 0
0.02 5.0813520058313e-14 0.3
5.0813520058313e-14 -0.02 0.3
-0.02 -5.0813520058313e-14 0.3
-5.0813520058313e-14 0.02 0.3
0.02 0.02 0.029999999999945
0.02 0.02 0.05999999999987
0.02 0.02 0.089999999999783
0.02 0.02 0.1199999999997
0.02 0.02 0.14999999999962
0.02 0.02 0.17999999999969
0.02 0.02 0.20999999999977
0.02 0.02 0.23999999999985
0.02 0.02 0.26999999999992
0.02 -0.02 0.029999999999945
0.02 -0.02 0.05999999999987
0.02 -0.02 0.089999999999783
0.02 -0.02 0.1199999999997
0.02 -0.02 0.14999999999962
0.02 -0.02 0.17999999999969
0.02 -0.02 0.20999999999977
0.02 -0.02 0.23999999999985
0.02 -0.02 0.26999999999992
-0.02 -0.02 0.029999999999945
-0.02 -0.02 0.05999999999987
-0.02 -0.02 0.089999999999783
-0.02 -0.02 0.1199999999997
-0.02 -0.02 0.14999999999962
-0.02 -0.02 0.17999999999969
-0.02 -0.02 0.20999999999977
-0.02 -0.02 0.23999999999985
-0.02 -0.02 0.26999999999992
-0.02 0.02 0.029999999999945
-0.02 0.02 0.05999999999987
-0.02 0.02 0.089999999999783
-0.02 0.02 0.1199999999997
-0.02 0.02 0.14999999999962
-0.02 0.02 0.17999999999969
-0.02 0.02 0.20999999999977
-0.02 0.02 0.23999999999985
-0.02 0.02 0.26999999999992
6.7762635780344e-18 1.7216290262143e-29 0
-0.0099999999999746 -0.010000000000025 0
-0.010000000000025 0.0099999999999746 -0
0.0099999999999746 0.010000000000025 0
0.010000000000025 -0.0099999999999746 0
0.02 0 0.044999999999908
0.02 0 0.074999999999827
0.02 0 0.10499999999974
0.02 0 0.13499999999966
0.02 0 0.16499999999966
0.02 0 0.19499999999973
0.02 0 0.22499999999981
0.02 0 0.25499999999988
0.02 1.0162010122272e-14 0.011999999999978
0.02 1.0162010122272e-14 0.28799999999997
0 -0.02 0.044999999999908
0 -0.02 0.074999999999827
0 -0.02 0.10499999999974
0 -0.02 0.13499999999966
0 -0.02 0.16499999999966
0 -0.02 0.19499999999973
0 -0.02 0.22499999999981
0 -0.02 0.25499999999988
1.0162010122272e-14 -0.02 0.011999999999978
1.0162010122272e-14 -0.02 0.28799999999997
-0.02 0 0.044999999999908
-0.02 0 0.074999999999827
-0.02 0 0.10499999999974
-0.02 0 0.13499999999966
-0.02 0 0.16499999999966
-0.02 0 0.19499999999973
-0.02 0 0.22499999999981
-0.02 0 0.25499999999988
-0.02 -1.0162010122272e-14 0.011999999999978
-0.02 -1.0162010122272e-14 0.28799999999997
0 0.02 0.044999999999908
0 0.02 0.074999999999827
0 0.02 0.10499999999974
0 0.02 0.13499999999966
0 0.02 0.16499999999966
0 0.02 0.19499999999973
0 0.02 0.22499999999981
0 0.02 0.25499999999988
-1.0162010122272e-14 0.02 0.011999999999978
-1.0162010122272e-14 0.02 0.28799999999997
6.7762635780344e-18 1.7216290262143e-29 0.3
-0.0099999999999746 -0.010000000000025 0.3
-0.010000000000025 0.0099999999999746 0.3
0.0099999999999746 0.010000000000025 0.3
0.010000000000025 -0.0099999999999746 0.3
0 0 0.028499999999943
0 0 0.054166666666476
0 0 0.095833333333177
0 0 0.15583333333301
0 0 0.18223484848456
0 0 0.11416666666631
0 0 0.23416666666656
-0.0042410714289282 0.0042410714289282 0.19851190476127
-3.4694469519536e-18 0 0.2758333333332

CELLS 280 1400
4 80 90 60 107
4 80 60 70 107
4 84 94 64 108
4 84 64 74 108
4 64 94 84 110
4 84 74 64 110
4 80 70 60 105
4 80 60 90 105
4 73 108 63 109
4 78 88 58 103
4 58 68 78 103
4 78 58 88 104
4 78 68 58 104
4 63 108 93 109
4 83 108 73 109
4 93 108 83 109
4 40 31 72 109
4 62 31 22 109
4 55 52 65 102
4 85 53 52 102
4 52 75 56 102
4 54 52 95 102
4 53 75 52 102
4 65 52 56 102
4 55 95 52 102
4 85 52 54 102
4 31 73 63 109
4 46 89 19 107
4 19 59 28 107
4 37 79 46 107
4 28 69 37 107
4 50 93 23 108
4 23 63 32 108
4 41 83 50 108
4 32 73 41 108
4 19 90 46 107
4 19 28 60 107
4 37 46 80 107
4 28 37 70 107
4 23 94 50 108
4 32 64 23 108
4 41 50 84 108
4 32 41 74 108
4 85 54 95 102
4 85 75 53 102
4 65 56 75 102
4 55 65 95 102
4 93 49 22 109
4 40 49 83 109
4 31 63 22 109
4 73 31 40 109
4 49 40 82 109
4 49 92 22 109
4 16 87 43 102
4 43 77 34 102
4 25 57 16 102
4 67 25 34 102
4 33 74 42 110
4 24 51 94 110
4 24 64 33 110
4 42 84 51 110
4 22 63 93 109
4 73 40 83 109
4 29 38 71 105
4 20 29 61 105
4 47 20 91 105
4 38 47 81 105
4 39 48 82 106
4 30 39 72 106
4 92 48 21 106
4 30 62 21 106
4 21 48 91 106
4 81 48 39 106
4 39 30 71 106
4 21 61 30 106
4 29 70 38 105
4 38 80 47 105
4 47 90 20 105
4 60 29 20 105
4 27 59 18 104
4 36 45 79 104
4 27 36 69 104
4 89 45 18 104
4 17 44 87 103
4 26 17 57 103
4 35 77 44 103
4 26 67 35 103
4 1 65 56 75
4 53 85 0 75
4 54 85 95 3
4 2 95 55 65
4 66 96 100 4
4 6 86 98 76
4 99 7 96 86
4 5 76 101 66
4 17 88 44 103
4 58 17 26 103
4 35 44 78 103
4 26 35 68 103
4 18 45 88 104
4 18 58 27 104
4 78 45 36 104
4 36 27 68 104
4 62 72 31 109
4 86 97 98 110
4 76 97 101 110
4 66 97 100 110
4 96 97 99 110
4 99 97 86 110
4 98 97 76 110
4 96 100 97 110
4 101 97 66 110
4 33 66 24 110
4 51 24 96 110
4 42 51 86 110
4 33 42 76 110
4 34 85 43 102
4 25 75 34 102
4 43 95 16 102
4 16 65 25 102
4 91 81 105 106
4 71 105 81 106
4 71 61 105 106
4 91 105 61 106
4 19 60 90 107
4 46 90 80 107
4 28 70 60 107
4 37 80 70 107
4 84 74 41 108
4 23 64 94 108
4 50 94 84 108
4 32 74 64 108
4 93 83 49 109
4 66 100 96 110
4 76 101 66 110
4 86 98 76 110
4 96 99 86 110
4 64 24 94 110
4 84 94 51 110
4 33 64 74 110
4 42 74 84 110
4 87 77 102 103
4 67 102 77 103
4 67 57 102 103
4 87 102 57 103
4 80 38 70 105
4 29 60 70 105
4 20 90 60 105
4 47 80 90 105
4 62 106 72 109
4 17 58 88 103
4 78 44 88 103
4 35 78 68 103
4 58 26 68 103
4 68 27 58 104
4 78 36 68 104
4 18 88 58 104
4 78 88 45 104
4 92 106 62 109
4 82 72 106 109
4 67 57 25 102
4 57 87 16 102
4 34 77 67 102
4 43 87 77 102
4 81 91 48 106
4 81 39 71 106
4 71 30 61 106
4 21 91 61 106
4 85 34 75 102
4 43 85 95 102
4 25 65 75 102
4 16 95 65 102
4 89 104 59 107
4 59 104 69 107
4 79 69 104 107
4 79 104 89 107
4 23 93 63 108
4 32 63 73 108
4 41 73 83 108
4 93 50 83 108
4 89 46 79 107
4 19 89 59 107
4 28 59 69 107
4 37 69 79 107
4 86 76 42 110
4 66 96 24 110
4 33 76 66 110
4 51 96 86 110
4 21 62 92 106
4 30 72 62 106
4 82 72 39 106
4 62 22 92 109
4 72 82 40 109
4 76 98 101 97
4 86 99 98 97
4 99 100 97 96
4 85 53 54 52
4 52 53 56 75
4 54 55 95 52
4 99 14 86 98
4 76 98 13 101
4 97 12 101 66
4 99 100 96 15
4 97 12 66 100
4 54 55 8 95
4 56 53 10 75
4 53 11 85 54
4 52 9 65 56
4 52 9 55 65
4 42 86 6 76
4 24 96 66 4
4 7 51 96 86
4 76 5 33 66
4 95 2 16 65
4 85 34 0 75
4 1 65 75 25
4 85 95 3 43
4 71 61 29 105
4 91 81 47 105
4 38 81 71 105
4 20 61 91 105
4 87 57 17 103
4 44 77 87 103
4 67 77 35 103
4 26 57 67 103
4 89 79 45 104
4 79 69 36 104
4 18 59 89 104
4 27 69 59 104
4 92 48 106 109
4 82 106 48 109
4 30 72 31 62
4 21 22 92 62
4 40 39 82 72
4 49 50 83 93
4 22 23 93 63
4 73 32 31 63
4 41 40 83 73
4 91 21 61 20
4 39 38 81 71
4 47 48 81 91
4 30 71 61 29
4 24 64 94 23
4 84 42 41 74
4 50 51 84 94
4 32 74 33 64
4 16 17 87 57
4 44 77 43 87
4 35 34 77 67
4 67 57 26 25
4 59 28 69 27
4 37 36 79 69
4 19 89 18 59
4 37 80 38 70
4 80 46 47 90
4 45 46 79 89
4 90 19 20 60
4 28 60 70 29
4 36 35 78 68
4 78 44 45 88
4 17 18 88 58
4 68 58 27 26
4 53 0 10 75
4 95 8 2 55
4 11 85 54 3
4 1 65 9 56
4 55 2 65 9
4 8 54 95 3
4 11 53 85 0
4 1 56 10 75
4 96 15 100 4
4 7 99 14 86
4 98 6 76 13
4 5 101 12 66
4 7 99 96 15
4 12 66 100 4
4 76 13 5 101
4 86 14 6 98
4 109 48 49 92
4 109 49 48 82

CELL_TYPES 280
10
10
10
10
10
10
10
10
10
10
10
10
10
10
10
10
10
10
10
10
10
10
10
10
10
10
10
10
10
10
10
10
10
10
10
10
10
10
10
10
10
10
10
10
10
10
10
10
10
10
10
10
10
10
10
10
10
10
10
10
10
10
10
10
10
10
10
10
10
10
10
10
10
10
10
10
10
10
10
10
10
10
10
10
10
10
10
10
10
10
10
10
10
10
10
10
10
10
10
10
10
10
10
10
10
10
10
10
10
10
10
10
10
10
10
10
10
10
10
10
10
10
10
10
10
10
10
10
10
10
10
10
10
10
10
10
10
10
10
10
10
10
10
10
10
10
10
10
10
10
10
10
10
10
10
10
10
10
10
10
10
10
10
10
10
10
10
10
10
10
10
10
10
10
10
10
10
10
10
10
10
10
10
10
10
10
10
10
10
10
10
10
10
10
10
10
10
10
10
10
10
10
10
10
10
10
10
10
10
10
10
10
10
10
10
10
10
10
10
10
10
10
10
10
10
10
10
10
10
10
10
10
10
10
10
10
10
10
10
10
10
10
10
10
10
10
10
10
10
10
10
10
10
10
10
10
10
10
10
10
10
10
10
10
10
10
10
10
10
10
10
10
10
10
10
10
10
10
10
10

CELL_DATA 280
SCALARS dataset float 1
LOOKUP_TABLE default
1
1
1
1
1
1
1
1
1
1
1
1
1
1
1
1
1
1
1
1
1
1
1
1
1
1
1
1
1
1
1
1
1
1
1
1
1
1
1
1
1
1
1
1
1
1
1
1
1
1
1
1
1
1
1
1
1
1
1
1
1
1
1
1
1
1
1
1
1
1
1
1
1
1
1
1
1
1
1
1
1
1
1
1
1
1
1
1
1
1
1
1
1
1
1
1
1
1
1
1
1
1
1
1
1
1
1
1
1
1
1
1
1
1
1
1
1
1
1
1
1
1
1
1
1
1
1
1
1
1
1
1
1
1
1
1
1
1
1
1
1
1
1
1
1
1
1
1
1
1
1
1
1
1
1
1
1
1
1
1
1
1
1
1
1
1
1
1
1
1
1
1
1
1
1
1
1
1
1
1
1
1
1
1
1
1
1
1
1
1
1
1
1
1
1
1
1
1
1
1
1
1
1
1
1
1
1
1
1
1
1
1
1
1
1
1
1
1
1
1
1
1
1
1
1
1
1
1
1
1
1
1
1
1
1
1
1
1
1
1
1
1
1
1
1
1
1
1
1
1
1
1
1
1
1
1
1
1
1
1
1
1
1
1
1
1
1
1
1
1
1
1
1
1
1
1
1
1
1
1
