# vtk DataFile Version 2.0
Exported by getfem++
ASCII
DATASET UNSTRUCTURED_GRID
POINTS 26 float 
-0.02 -0.02 0
0.02 -0.02 0
0.02 0.02 0
-0.02 0.02 0
0.02 0.02 0.3
0.02 -0.02 0.3
-0.02 -0.02 0.3
-0.02 0.02 0.3
0.02 0.02 0.05999999999987
0.02 0.02 0.1199999999997
0.02 0.02 0.17999999999969
0.02 0.02 0.23999999999985
0.02 -0.02 0.05999999999987
0.02 -0.02 0.1199999999997
0.02 -0.02 0.17999999999969
0.02 -0.02 0.23999999999985
-0.02 -0.02 0.05999999999987
-0.02 -0.02 0.1199999999997
-0.02 -0.02 0.17999999999969
-0.02 -0.02 0.23999999999985
-0.02 0.02 0.05999999999987
-0.02 0.02 0.1199999999997
-0.02 0.02 0.17999999999969
-0.02 0.02 0.23999999999985
0 0 0
0 0 0.3

CELLS 38 190
4 15 23 25 11
4 16 3 24 0
4 1 16 24 0
4 7 23 4 25
4 6 15 25 5
4 15 5 4 25
4 23 6 25 7
4 4 15 25 11
4 23 4 25 11
4 16 20 8 24
4 23 19 15 25
4 8 16 24 12
4 17 9 10 13
4 9 17 10 21
4 18 10 15 14
4 10 23 15 11
4 17 9 13 8
4 17 9 8 21
4 18 13 10 14
4 6 15 19 25
4 23 6 19 25
4 20 3 8 24
4 16 3 20 24
4 2 12 8 24
4 1 16 12 24
4 3 2 8 24
4 2 12 24 1
4 17 8 16 20
4 8 16 12 13
4 10 23 22 15
4 22 19 15 23
4 15 18 19 22
4 18 10 22 15
4 8 17 21 20
4 17 8 13 16
4 10 17 22 21
4 18 13 17 10
4 10 17 18 22

CELL_TYPES 38
10
10
10
10
10
10
10
10
10
10
10
10
10
10
10
10
10
10
10
10
10
10
10
10
10
10
10
10
10
10
10
10
10
10
10
10
10
10

CELL_DATA 38
SCALARS dataset float 1
LOOKUP_TABLE default
1
1
1
1
1
1
1
1
1
1
1
1
1
1
1
1
1
1
1
1
1
1
1
1
1
1
1
1
1
1
1
1
1
1
1
1
1
1
