# vtk DataFile Version 2.0
Exported by getfem++
ASCII
DATASET UNSTRUCTURED_GRID
POINTS 53 float 
0.02 0 0
0 0.02 0
-0.02 0 0
0 -0.02 0
0.02 0 0.15
0 0.02 0.15
-0.02 0 0.15
0 -0.02 0.15
0.02 0 0.3
0 0.02 0.3
-0.02 0 0.3
0 -0.02 0.3
0.014142135623758 0.014142135623704 0
-0.014142135623704 0.014142135623758 0
-0.014142135623758 -0.014142135623704 0
0.014142135623704 -0.014142135623758 0
0.014142135623758 0.014142135623704 0.15
-0.014142135623704 0.014142135623758 0.15
-0.014142135623758 -0.014142135623704 0.15
0.014142135623704 -0.014142135623758 0.15
0.02 0 0.074999999999809
0 0.02 0.074999999999809
-0.02 0 0.074999999999809
0 -0.02 0.074999999999809
0.014142135623758 0.014142135623704 0.3
-0.014142135623704 0.014142135623758 0.3
-0.014142135623758 -0.014142135623704 0.3
0.014142135623704 -0.014142135623758 0.3
0.02 0 0.22499999999979
0 0.02 0.22499999999979
-0.02 0 0.22499999999979
0 -0.02 0.22499999999979
0 0 0
0.0083818505738473 -0.0034718761854817 0
0.0046080717544002 0.008470140613579 0
-0.0084011297068176 0.0046134343661429 0
-0.0034879322539776 -0.0083340169873761 0
0 0 0.15
0.0083818505738473 -0.0034718761854817 0.15
0.0046080717544002 0.008470140613579 0.15
-0.0084011297068176 0.0046134343661429 0.15
-0.0034879322539776 -0.0083340169873761 0.15
0 0 0.3
0.0083818505738473 -0.0034718761854817 0.3
0.0046080717544002 0.008470140613579 0.3
-0.0084011297068176 0.0046134343661429 0.3
-0.0034879322539776 -0.0083340169873761 0.3
5.6064924164959e-05 7.1694014598718e-05 0.13023950669746
5.6064923500119e-05 7.1694013507962e-05 0.019760493384644
5.7244346653971e-06 7.3183816949844e-06 0.074999985515524
5.6064888782837e-05 7.1693943256393e-05 0.28023950654514
5.60649128958e-05 7.1693945210141e-05 0.16976049322024
5.724757524542e-06 7.320594513963e-06 0.22500000041666

CELLS 128 640
4 40 37 41 47
4 36 32 35 48
4 41 37 38 47
4 32 36 33 48
4 16 20 4 47
4 12 0 20 48
4 39 38 37 47
4 34 32 33 48
4 39 37 40 47
4 35 32 34 48
4 20 19 4 47
4 0 15 20 48
4 20 23 19 47
4 20 15 23 48
4 16 5 21 47
4 1 12 21 48
4 19 23 7 47
4 15 3 23 48
4 17 21 5 47
4 13 1 21 48
4 22 21 17 47
4 22 13 21 48
4 18 23 22 47
4 14 22 23 48
4 18 7 23 47
4 14 23 3 48
4 17 6 22 47
4 2 13 22 48
4 40 41 6 47
4 36 35 2 48
4 22 6 18 47
4 14 2 22 48
4 41 38 19 47
4 36 15 33 48
4 39 40 5 47
4 35 34 1 48
4 39 4 38 47
4 34 33 0 48
4 2 35 13 48
4 17 40 6 47
4 14 3 36 48
4 41 7 18 47
4 14 36 2 48
4 6 41 18 47
4 13 35 1 48
4 40 17 5 47
4 36 3 15 48
4 41 19 7 47
4 4 19 38 47
4 0 33 15 48
4 16 39 5 47
4 1 34 12 48
4 16 4 39 47
4 34 0 12 48
4 49 23 20 47
4 21 49 20 47
4 20 23 49 48
4 49 21 20 48
4 12 20 21 48
4 16 21 20 47
4 22 23 49 47
4 21 22 49 47
4 49 23 22 48
4 22 21 49 48
4 45 42 46 50
4 40 41 37 51
4 46 42 43 50
4 41 38 37 51
4 24 28 8 50
4 16 4 28 51
4 44 43 42 50
4 39 37 38 51
4 45 44 42 50
4 40 37 39 51
4 27 8 28 50
4 4 19 28 51
4 31 27 28 50
4 28 19 31 51
4 24 9 29 50
4 29 5 16 51
4 27 31 11 50
4 19 7 31 51
4 25 29 9 50
4 17 5 29 51
4 25 30 29 50
4 17 29 30 51
4 30 26 31 50
4 30 31 18 51
4 26 11 31 50
4 18 31 7 51
4 25 10 30 50
4 17 30 6 51
4 46 10 45 50
4 6 41 40 51
4 30 10 26 50
4 18 6 30 51
4 46 43 27 50
4 19 38 41 51
4 45 9 44 50
4 40 39 5 51
4 44 8 43 50
4 39 38 4 51
4 45 10 25 50
4 40 17 6 51
4 46 11 26 50
4 18 7 41 51
4 46 26 10 50
4 18 41 6 51
4 25 9 45 50
4 40 5 17 51
4 46 27 11 50
4 19 41 7 51
4 43 8 27 50
4 4 38 19 51
4 44 9 24 50
4 16 5 39 51
4 24 8 44 50
4 16 39 4 51
4 31 28 52 50
4 52 28 29 50
4 31 52 28 51
4 28 52 29 51
4 28 29 16 51
4 24 29 28 50
4 31 52 30 50
4 30 52 29 50
4 31 30 52 51
4 52 30 29 51

CELL_TYPES 128
10
10
10
10
10
10
10
10
10
10
10
10
10
10
10
10
10
10
10
10
10
10
10
10
10
10
10
10
10
10
10
10
10
10
10
10
10
10
10
10
10
10
10
10
10
10
10
10
10
10
10
10
10
10
10
10
10
10
10
10
10
10
10
10
10
10
10
10
10
10
10
10
10
10
10
10
10
10
10
10
10
10
10
10
10
10
10
10
10
10
10
10
10
10
10
10
10
10
10
10
10
10
10
10
10
10
10
10
10
10
10
10
10
10
10
10
10
10
10
10
10
10
10
10
10
10
10
10

CELL_DATA 128
SCALARS dataset float 1
LOOKUP_TABLE default
1
1
1
1
1
1
1
1
1
1
1
1
1
1
1
1
1
1
1
1
1
1
1
1
1
1
1
1
1
1
1
1
1
1
1
1
1
1
1
1
1
1
1
1
1
1
1
1
1
1
1
1
1
1
1
1
1
1
1
1
1
1
1
1
2
2
2
2
2
2
2
2
2
2
2
2
2
2
2
2
2
2
2
2
2
2
2
2
2
2
2
2
2
2
2
2
2
2
2
2
2
2
2
2
2
2
2
2
2
2
2
2
2
2
2
2
2
2
2
2
2
2
2
2
2
2
2
2
