# vtk DataFile Version 2.0
Exported by getfem++
ASCII
DATASET UNSTRUCTURED_GRID
POINTS 39 float 
0.02 0 0
0 0.02 0
-0.02 0 0
0 -0.02 0
0.02 0 0.3
0 0.02 0.3
-0.02 0 0.3
0 -0.02 0.3
0.014142135623758 0.014142135623704 0
-0.014142135623704 0.014142135623758 0
-0.014142135623758 -0.014142135623704 0
0.014142135623704 -0.014142135623758 0
0.014142135623758 0.014142135623704 0.3
-0.014142135623704 0.014142135623758 0.3
-0.014142135623758 -0.014142135623704 0.3
0.014142135623704 -0.014142135623758 0.3
0.02 0 0.099999999999754
0.02 0 0.19999999999975
0 0.02 0.099999999999754
0 0.02 0.19999999999975
-0.02 0 0.099999999999754
-0.02 0 0.19999999999975
0 -0.02 0.099999999999754
0 -0.02 0.19999999999975
0 0 0
0.0083818505738473 -0.0034718761854817 0
0.0046080717544002 0.008470140613579 0
-0.0084011297068176 0.0046134343661429 0
-0.0034879322539776 -0.0083340169873761 0
0 0 0.3
0.0083818505738473 -0.0034718761854817 0.3
0.0046080717544002 0.008470140613579 0.3
-0.0084011297068176 0.0046134343661429 0.3
-0.0034879322539776 -0.0083340169873761 0.3
-3.3087224502123e-19 1.6543612251062e-19 0.14999999999975
0.0026843488319996 0.0026813524192934 0.24341816287878
0.0026843488319996 0.0026813524192934 0.056581837120942
-0.0037009496200825 -0.0037012942064311 0.26643136844111
-0.0037009496200825 -0.0037012942064311 0.033568631558727

CELLS 86 430
4 15 23 7 37
4 11 3 22 38
4 14 7 23 37
4 10 22 3 38
4 34 20 19 18
4 34 20 21 19
4 20 34 21 22
4 34 21 22 23
4 13 19 5 35
4 9 1 18 36
4 13 21 19 35
4 9 18 20 36
4 21 14 23 37
4 10 20 22 38
4 21 23 35 37
4 20 36 22 38
4 21 6 14 37
4 10 2 20 38
4 4 35 15 37
4 11 36 0 38
4 32 31 29 37
4 27 24 26 38
4 29 31 30 37
4 26 24 25 38
4 32 29 33 37
4 28 24 27 38
4 33 29 30 37
4 28 25 24 38
4 4 12 35 37
4 0 36 8 38
4 13 35 5 37
4 9 1 36 38
4 27 26 1 38
4 5 31 32 37
4 34 20 18 22
4 18 22 16 34
4 5 35 12 37
4 1 8 36 38
4 26 25 0 38
4 30 31 4 37
4 28 27 2 38
4 33 6 32 37
4 1 26 8 38
4 5 12 31 37
4 2 27 9 38
4 32 6 13 37
4 33 30 15 37
4 28 11 25 38
4 23 17 19 35
4 23 19 21 35
4 22 18 16 36
4 20 18 22 36
4 9 27 1 38
4 32 13 5 37
4 17 23 19 34
4 34 21 23 19
4 26 0 8 38
4 4 31 12 37
4 10 28 2 38
4 33 14 6 37
4 25 11 0 38
4 30 4 15 37
4 28 10 3 38
4 33 7 14 37
4 28 3 11 38
4 33 15 7 37
4 15 35 23 37
4 17 18 16 34
4 16 0 11 36
4 17 18 34 19
4 16 11 22 36
4 18 8 16 36
4 8 0 16 36
4 22 23 16 34
4 11 22 36 38
4 23 17 16 34
4 1 8 18 36
4 5 19 12 35
4 19 17 12 35
4 17 4 12 35
4 15 17 23 35
4 15 4 17 35
4 37 21 13 35
4 37 13 21 6
4 38 20 9 2
4 38 9 20 36

CELL_TYPES 86
10
10
10
10
10
10
10
10
10
10
10
10
10
10
10
10
10
10
10
10
10
10
10
10
10
10
10
10
10
10
10
10
10
10
10
10
10
10
10
10
10
10
10
10
10
10
10
10
10
10
10
10
10
10
10
10
10
10
10
10
10
10
10
10
10
10
10
10
10
10
10
10
10
10
10
10
10
10
10
10
10
10
10
10
10
10

CELL_DATA 86
SCALARS dataset float 1
LOOKUP_TABLE default
1
1
1
1
1
1
1
1
1
1
1
1
1
1
1
1
1
1
1
1
1
1
1
1
1
1
1
1
1
1
1
1
1
1
1
1
1
1
1
1
1
1
1
1
1
1
1
1
1
1
1
1
1
1
1
1
1
1
1
1
1
1
1
1
1
1
1
1
1
1
1
1
1
1
1
1
1
1
1
1
1
1
1
1
1
1
