# vtk DataFile Version 2.0
Exported by getfem++
ASCII
DATASET UNSTRUCTURED_GRID
POINTS 102 float 
0.02 0 0
0 0.02 0
-0.02 0 0
0 -0.02 0
0.02 0 0.3
0 0.02 0.3
-0.02 0 0.3
0 -0.02 0.3
0.014142135623758 0.014142135623704 0
-0.014142135623704 0.014142135623758 0
-0.014142135623758 -0.014142135623704 0
0.014142135623704 -0.014142135623758 0
0.014142135623758 0.014142135623704 0.3
-0.014142135623704 0.014142135623758 0.3
-0.014142135623758 -0.014142135623704 0.3
0.014142135623704 -0.014142135623758 0.3
0.02 0 0.029999999999945
0.02 0 0.05999999999987
0.02 0 0.089999999999783
0.02 0 0.1199999999997
0.02 0 0.14999999999962
0.02 0 0.17999999999969
0.02 0 0.20999999999977
0.02 0 0.23999999999985
0.02 0 0.26999999999992
0 0.02 0.029999999999945
0 0.02 0.05999999999987
0 0.02 0.089999999999783
0 0.02 0.1199999999997
0 0.02 0.14999999999962
0 0.02 0.17999999999969
0 0.02 0.20999999999977
0 0.02 0.23999999999985
0 0.02 0.26999999999992
-0.02 0 0.029999999999945
-0.02 0 0.05999999999987
-0.02 0 0.089999999999783
-0.02 0 0.1199999999997
-0.02 0 0.14999999999962
-0.02 0 0.17999999999969
-0.02 0 0.20999999999977
-0.02 0 0.23999999999985
-0.02 0 0.26999999999992
0 -0.02 0.029999999999945
0 -0.02 0.05999999999987
0 -0.02 0.089999999999783
0 -0.02 0.1199999999997
0 -0.02 0.14999999999962
0 -0.02 0.17999999999969
0 -0.02 0.20999999999977
0 -0.02 0.23999999999985
0 -0.02 0.26999999999992
0 0 0
0.0083818505738473 -0.0034718761854817 0
0.0046080717544002 0.008470140613579 0
-0.0084011297068176 0.0046134343661429 0
-0.0034879322539776 -0.0083340169873761 0
0.014142135623735 0.014142135623726 0.017499999999966
0.014142135623735 0.014142135623726 0.28249999999995
0.014142135623731 0.014142135623731 0.044999999999908
0.014142135623731 0.014142135623731 0.074999999999827
0.014142135623731 0.014142135623731 0.10499999999975
0.014142135623731 0.014142135623731 0.13499999999968
0.014142135623731 0.014142135623731 0.16499999999967
0.014142135623731 0.014142135623731 0.19499999999974
0.014142135623731 0.014142135623731 0.22499999999981
0.014142135623731 0.014142135623731 0.25499999999988
-0.014142135623726 0.014142135623735 0.017499999999966
-0.014142135623726 0.014142135623735 0.28249999999995
-0.014142135623731 0.014142135623731 0.044999999999908
-0.014142135623731 0.014142135623731 0.074999999999827
-0.014142135623731 0.014142135623731 0.10499999999975
-0.014142135623731 0.014142135623731 0.13499999999968
-0.014142135623731 0.014142135623731 0.16499999999967
-0.014142135623731 0.014142135623731 0.19499999999974
-0.014142135623731 0.014142135623731 0.22499999999981
-0.014142135623731 0.014142135623731 0.25499999999988
-0.014142135623735 -0.014142135623726 0.017499999999966
-0.014142135623735 -0.014142135623726 0.28249999999995
-0.014142135623731 -0.014142135623731 0.044999999999908
-0.014142135623731 -0.014142135623731 0.074999999999827
-0.014142135623731 -0.014142135623731 0.10499999999975
-0.014142135623731 -0.014142135623731 0.13499999999968
-0.014142135623731 -0.014142135623731 0.16499999999967
-0.014142135623731 -0.014142135623731 0.19499999999974
-0.014142135623731 -0.014142135623731 0.22499999999981
-0.014142135623731 -0.014142135623731 0.25499999999988
0.014142135623726 -0.014142135623735 0.017499999999966
0.014142135623726 -0.014142135623735 0.28249999999995
0.014142135623731 -0.014142135623731 0.044999999999908
0.014142135623731 -0.014142135623731 0.074999999999827
0.014142135623731 -0.014142135623731 0.10499999999975
0.014142135623731 -0.014142135623731 0.13499999999968
0.014142135623731 -0.014142135623731 0.16499999999967
0.014142135623731 -0.014142135623731 0.19499999999974
0.014142135623731 -0.014142135623731 0.22499999999981
0.014142135623731 -0.014142135623731 0.25499999999988
0 0 0.3
0.0083818505738473 -0.0034718761854817 0.3
0.0046080717544002 0.008470140613579 0.3
-0.0084011297068176 0.0046134343661429 0.3
-0.0034879322539776 -0.0083340169873761 0.3

CELLS 256 1280
4 54 57 52 53
4 99 98 97 58
4 77 67 57 52
4 57 77 52 87
4 78 68 97 58
4 88 78 97 58
4 57 52 53 87
4 98 88 97 58
4 52 56 53 87
4 101 98 88 97
4 67 55 54 52
4 100 68 99 97
4 77 56 52 87
4 78 101 88 97
4 77 55 67 52
4 68 100 78 97
4 57 67 54 52
4 68 99 97 58
4 77 56 55 52
4 78 100 101 97
4 34 77 67 57
4 34 77 57 87
4 68 78 24 58
4 78 88 24 58
4 25 34 67 57
4 34 57 16 87
4 77 34 43 87
4 68 24 33 58
4 42 68 78 24
4 51 78 88 24
4 34 16 43 87
4 25 34 57 16
4 42 68 24 33
4 42 78 51 24
4 45 36 18 90
4 27 36 60 18
4 36 70 27 60
4 45 80 36 90
4 36 60 18 90
4 80 70 36 90
4 36 70 60 90
4 35 79 69 89
4 35 69 59 89
4 36 27 61 18
4 36 45 18 91
4 80 35 70 90
4 70 35 60 90
4 35 59 17 89
4 69 35 59 26
4 79 35 44 89
4 28 37 61 19
4 37 19 46 91
4 35 70 60 26
4 60 35 17 90
4 35 80 44 90
4 35 17 44 89
4 35 59 26 17
4 81 45 36 91
4 71 36 27 61
4 61 36 18 91
4 69 34 59 89
4 79 34 69 89
4 60 35 26 17
4 17 35 44 90
4 28 37 71 61
4 37 61 19 91
4 81 37 46 91
4 71 81 36 91
4 71 36 61 91
4 37 81 71 91
4 37 71 61 91
4 34 79 43 89
4 34 25 69 59
4 59 34 16 89
4 19 37 46 92
4 37 28 62 19
4 16 34 43 89
4 34 25 59 16
4 37 28 72 62
4 37 82 46 92
4 62 37 19 92
4 82 37 62 92
4 82 37 72 62
4 29 82 62 92
4 29 82 72 62
4 20 29 62 92
4 82 29 47 92
4 82 29 72 38
4 29 73 83 93
4 29 73 93 63
4 38 29 73 83
4 20 29 93 63
4 83 29 93 47
4 29 20 93 47
4 38 29 83 47
4 73 83 93 21
4 73 93 63 21
4 76 96 23 66
4 96 76 23 86
4 94 84 64 21
4 84 74 64 21
4 95 75 23 65
4 85 75 50 95
4 75 50 95 23
4 86 76 51 96
4 96 76 24 66
4 76 23 32 66
4 75 41 85 50
4 75 32 23 65
4 76 23 86 32
4 50 86 96 23
4 32 76 41 86
4 75 32 41 23
4 75 41 50 23
4 83 48 93 21
4 83 73 39 21
4 73 63 30 21
4 75 95 22 65
4 95 75 22 85
4 48 84 94 21
4 64 74 30 21
4 74 84 39 21
4 29 20 47 92
4 84 94 64 22
4 82 29 38 47
4 74 84 64 22
4 41 86 50 23
4 41 32 86 23
4 76 42 86 51
4 76 51 96 24
4 24 76 33 66
4 75 22 31 65
4 75 22 85 31
4 49 85 95 22
4 75 85 40 31
4 84 48 39 21
4 74 39 30 21
4 84 49 94 22
4 84 74 40 22
4 74 64 31 22
4 85 40 31 22
4 85 49 40 22
4 49 84 40 22
4 40 74 31 22
4 76 42 24 33
4 76 42 51 24
4 39 73 30 21
4 48 83 39 21
4 101 15 88 98
4 56 11 53 87
4 0 57 53 87
4 88 98 4 58
4 57 54 0 53
4 4 98 99 58
4 2 77 55 67
4 68 100 6 78
4 57 67 1 54
4 68 5 99 58
4 67 55 1 54
4 68 5 100 99
4 56 77 3 87
4 78 101 7 88
4 77 56 2 55
4 100 6 78 101
4 77 56 10 2
4 6 14 78 101
4 56 11 87 3
4 101 15 7 88
4 8 57 54 0
4 99 4 58 12
4 55 9 67 1
4 68 5 13 100
4 11 0 53 87
4 98 15 88 4
4 67 25 57 1
4 34 77 2 67
4 16 57 0 87
4 3 77 43 87
4 5 68 33 58
4 42 68 6 78
4 78 7 51 88
4 24 88 4 58
4 2 55 9 67
4 13 68 100 6
4 8 57 1 54
4 5 99 58 12
4 56 77 10 3
4 14 78 101 7
4 59 16 17 89
4 35 79 34 69
4 25 69 59 26
4 79 44 43 89
4 81 45 80 36
4 70 71 36 27
4 61 27 60 18
4 45 18 91 90
4 17 44 89 90
4 35 69 70 26
4 59 60 26 17
4 80 79 35 44
4 28 71 27 61
4 19 61 18 91
4 45 81 46 91
4 81 37 71 36
4 80 45 44 90
4 60 17 18 90
4 70 27 60 26
4 35 80 70 36
4 62 28 61 19
4 28 37 72 71
4 37 82 81 46
4 19 46 91 92
4 29 73 63 30
4 73 38 83 39
4 93 20 63 21
4 48 83 93 47
4 94 64 22 21
4 74 84 40 39
4 74 64 30 31
4 49 48 84 94
4 75 32 65 31
4 23 95 65 22
4 49 85 50 95
4 41 75 85 40
4 32 76 75 41
4 41 86 85 50
4 23 32 66 65
4 95 50 96 23
4 49 95 94 22
4 85 49 84 40
4 64 65 31 22
4 74 75 40 31
4 86 51 50 96
4 96 24 23 66
4 76 32 33 66
4 76 42 41 86
4 63 64 30 21
4 48 83 84 39
4 73 74 39 30
4 48 94 93 21
4 82 38 83 47
4 29 72 38 73
4 20 29 63 62
4 20 93 47 92
4 37 82 72 38
4 20 62 19 92
4 82 47 46 92
4 28 29 72 62
4 43 16 89 87
4 59 25 57 16
4 79 77 34 43
4 34 25 67 69
4 76 68 42 33
4 86 42 78 51
4 96 51 88 24
4 33 24 66 58

CELL_TYPES 256
10
10
10
10
10
10
10
10
10
10
10
10
10
10
10
10
10
10
10
10
10
10
10
10
10
10
10
10
10
10
10
10
10
10
10
10
10
10
10
10
10
10
10
10
10
10
10
10
10
10
10
10
10
10
10
10
10
10
10
10
10
10
10
10
10
10
10
10
10
10
10
10
10
10
10
10
10
10
10
10
10
10
10
10
10
10
10
10
10
10
10
10
10
10
10
10
10
10
10
10
10
10
10
10
10
10
10
10
10
10
10
10
10
10
10
10
10
10
10
10
10
10
10
10
10
10
10
10
10
10
10
10
10
10
10
10
10
10
10
10
10
10
10
10
10
10
10
10
10
10
10
10
10
10
10
10
10
10
10
10
10
10
10
10
10
10
10
10
10
10
10
10
10
10
10
10
10
10
10
10
10
10
10
10
10
10
10
10
10
10
10
10
10
10
10
10
10
10
10
10
10
10
10
10
10
10
10
10
10
10
10
10
10
10
10
10
10
10
10
10
10
10
10
10
10
10
10
10
10
10
10
10
10
10
10
10
10
10
10
10
10
10
10
10
10
10
10
10
10
10
10
10
10
10
10
10

CELL_DATA 256
SCALARS dataset float 1
LOOKUP_TABLE default
1
1
1
1
1
1
1
1
1
1
1
1
1
1
1
1
1
1
1
1
1
1
1
1
1
1
1
1
1
1
1
1
1
1
1
1
1
1
1
1
1
1
1
1
1
1
1
1
1
1
1
1
1
1
1
1
1
1
1
1
1
1
1
1
1
1
1
1
1
1
1
1
1
1
1
1
1
1
1
1
1
1
1
1
1
1
1
1
1
1
1
1
1
1
1
1
1
1
1
1
1
1
1
1
1
1
1
1
1
1
1
1
1
1
1
1
1
1
1
1
1
1
1
1
1
1
1
1
1
1
1
1
1
1
1
1
1
1
1
1
1
1
1
1
1
1
1
1
1
1
1
1
1
1
1
1
1
1
1
1
1
1
1
1
1
1
1
1
1
1
1
1
1
1
1
1
1
1
1
1
1
1
1
1
1
1
1
1
1
1
1
1
1
1
1
1
1
1
1
1
1
1
1
1
1
1
1
1
1
1
1
1
1
1
1
1
1
1
1
1
1
1
1
1
1
1
1
1
1
1
1
1
1
1
1
1
1
1
1
1
1
1
1
1
1
1
1
1
1
1
1
1
1
1
1
1
