# vtk DataFile Version 2.0
Exported by getfem++
ASCII
DATASET UNSTRUCTURED_GRID
POINTS 102 float 
0.02 0 0
0 0.02 0
-0.02 0 0
0 -0.02 0
0.02 0 0.3
0 0.02 0.3
-0.02 0 0.3
0 -0.02 0.3
0.014142135623758 0.014142135623704 0
-0.014142135623704 0.014142135623758 0
-0.014142135623758 -0.014142135623704 0
0.014142135623704 -0.014142135623758 0
0.014142135623758 0.014142135623704 0.3
-0.014142135623704 0.014142135623758 0.3
-0.014142135623758 -0.014142135623704 0.3
0.014142135623704 -0.014142135623758 0.3
0.02 0 0.029999999999945
0.02 0 0.05999999999987
0.02 0 0.089999999999783
0.02 0 0.1199999999997
0.02 0 0.14999999999962
0.02 0 0.17999999999969
0.02 0 0.20999999999977
0.02 0 0.23999999999985
0.02 0 0.26999999999992
0 0.02 0.029999999999945
0 0.02 0.05999999999987
0 0.02 0.089999999999783
0 0.02 0.1199999999997
0 0.02 0.14999999999962
0 0.02 0.17999999999969
0 0.02 0.20999999999977
0 0.02 0.23999999999985
0 0.02 0.26999999999992
-0.02 0 0.029999999999945
-0.02 0 0.05999999999987
-0.02 0 0.089999999999783
-0.02 0 0.1199999999997
-0.02 0 0.14999999999962
-0.02 0 0.17999999999969
-0.02 0 0.20999999999977
-0.02 0 0.23999999999985
-0.02 0 0.26999999999992
0 -0.02 0.029999999999945
0 -0.02 0.05999999999987
0 -0.02 0.089999999999783
0 -0.02 0.1199999999997
0 -0.02 0.14999999999962
0 -0.02 0.17999999999969
0 -0.02 0.20999999999977
0 -0.02 0.23999999999985
0 -0.02 0.26999999999992
0 0 0
0.0083818505738473 -0.0034718761854817 0
0.0046080717544002 0.008470140613579 0
-0.0084011297068176 0.0046134343661429 0
-0.0034879322539776 -0.0083340169873761 0
0.014142135623735 0.014142135623726 0.017499999999966
0.014142135623735 0.014142135623726 0.28249999999995
0.014142135623731 0.014142135623731 0.044999999999908
0.014142135623731 0.014142135623731 0.074999999999827
0.014142135623731 0.014142135623731 0.10499999999975
0.014142135623731 0.014142135623731 0.13499999999968
0.014142135623731 0.014142135623731 0.16499999999967
0.014142135623731 0.014142135623731 0.19499999999974
0.014142135623731 0.014142135623731 0.22499999999981
0.014142135623731 0.014142135623731 0.25499999999988
-0.014142135623726 0.014142135623735 0.017499999999966
-0.014142135623726 0.014142135623735 0.28249999999995
-0.014142135623731 0.014142135623731 0.044999999999908
-0.014142135623731 0.014142135623731 0.074999999999827
-0.014142135623731 0.014142135623731 0.10499999999975
-0.014142135623731 0.014142135623731 0.13499999999968
-0.014142135623731 0.014142135623731 0.16499999999967
-0.014142135623731 0.014142135623731 0.19499999999974
-0.014142135623731 0.014142135623731 0.22499999999981
-0.014142135623731 0.014142135623731 0.25499999999988
-0.014142135623735 -0.014142135623726 0.017499999999966
-0.014142135623735 -0.014142135623726 0.28249999999995
-0.014142135623731 -0.014142135623731 0.044999999999908
-0.014142135623731 -0.014142135623731 0.074999999999827
-0.014142135623731 -0.014142135623731 0.10499999999975
-0.014142135623731 -0.014142135623731 0.13499999999968
-0.014142135623731 -0.014142135623731 0.16499999999967
-0.014142135623731 -0.014142135623731 0.19499999999974
-0.014142135623731 -0.014142135623731 0.22499999999981
-0.014142135623731 -0.014142135623731 0.25499999999988
0.014142135623726 -0.014142135623735 0.017499999999966
0.014142135623726 -0.014142135623735 0.28249999999995
0.014142135623731 -0.014142135623731 0.044999999999908
0.014142135623731 -0.014142135623731 0.074999999999827
0.014142135623731 -0.014142135623731 0.10499999999975
0.014142135623731 -0.014142135623731 0.13499999999968
0.014142135623731 -0.014142135623731 0.16499999999967
0.014142135623731 -0.014142135623731 0.19499999999974
0.014142135623731 -0.014142135623731 0.22499999999981
0.014142135623731 -0.014142135623731 0.25499999999988
0 5.6445344256846e-20 0.3
0.0083818505738473 -0.0034718761854817 0.3
0.0046080717544002 0.008470140613579 0.3
-0.0084011297068176 0.0046134343661429 0.3
-0.0034879322539776 -0.0083340169873761 0.3

CELLS 255 1275
4 54 57 52 53
4 99 98 97 58
4 77 67 57 52
4 57 77 52 87
4 68 78 88 97
4 88 68 97 58
4 57 52 53 87
4 98 88 97 58
4 52 56 53 87
4 101 98 88 97
4 67 55 54 52
4 100 68 99 97
4 77 56 52 87
4 78 101 88 97
4 77 55 67 52
4 68 100 78 97
4 57 67 54 52
4 68 99 97 58
4 77 56 55 52
4 78 100 101 97
4 67 77 57 25
4 77 57 25 87
4 68 88 24 58
4 78 68 88 24
4 34 77 67 25
4 25 57 16 87
4 77 25 43 87
4 68 24 33 58
4 42 68 78 24
4 78 88 51 24
4 34 77 25 43
4 25 16 43 87
4 42 68 24 33
4 42 78 51 24
4 27 18 45 90
4 36 80 27 45
4 27 60 18 90
4 80 27 45 90
4 80 70 36 27
4 80 70 27 90
4 27 70 60 90
4 79 69 26 89
4 69 59 26 89
4 81 36 27 45
4 18 27 45 91
4 70 80 26 90
4 60 70 26 90
4 26 59 17 89
4 79 26 44 89
4 35 79 69 26
4 46 81 37 28
4 46 28 19 91
4 26 80 44 90
4 60 26 17 90
4 80 35 70 26
4 26 17 44 89
4 35 79 26 44
4 27 81 45 91
4 71 81 36 27
4 61 27 18 91
4 59 69 25 89
4 69 79 25 89
4 80 35 26 44
4 17 26 44 90
4 28 61 19 91
4 46 81 28 91
4 81 71 37 28
4 81 27 61 91
4 71 81 27 61
4 81 71 28 61
4 28 81 61 91
4 25 79 43 89
4 59 25 16 89
4 79 34 69 25
4 28 46 19 92
4 82 46 37 28
4 16 25 43 89
4 79 34 25 43
4 72 82 37 28
4 62 28 19 92
4 82 46 28 92
4 72 82 28 62
4 82 28 62 92
4 29 82 62 92
4 82 72 29 62
4 82 29 47 92
4 29 62 20 92
4 82 72 38 29
4 93 83 63 29
4 83 73 63 29
4 38 73 83 29
4 63 93 29 20
4 93 83 29 47
4 83 38 29 47
4 93 29 20 47
4 83 93 63 30
4 73 83 63 30
4 76 96 23 66
4 96 76 23 86
4 94 84 64 30
4 84 74 64 30
4 75 50 85 95
4 95 75 23 65
4 76 86 96 51
4 75 50 95 23
4 96 76 24 66
4 23 75 32 65
4 76 23 32 66
4 75 50 41 85
4 76 23 86 32
4 50 86 96 23
4 41 76 86 32
4 75 41 23 32
4 50 75 41 23
4 93 63 30 21
4 93 83 48 30
4 83 73 39 30
4 75 95 31 65
4 95 75 31 85
4 64 94 30 21
4 74 84 39 30
4 48 84 94 30
4 84 94 64 31
4 29 20 47 92
4 38 82 29 47
4 74 84 64 31
4 50 41 86 23
4 41 86 23 32
4 96 76 51 24
4 76 42 86 51
4 24 76 33 66
4 65 95 31 22
4 49 85 95 31
4 40 75 85 31
4 39 84 48 30
4 94 48 30 21
4 94 64 31 22
4 74 40 84 31
4 84 49 94 31
4 49 40 85 31
4 95 49 31 22
4 49 94 31 22
4 40 49 84 31
4 76 42 24 33
4 76 42 51 24
4 48 93 30 21
4 83 39 48 30
4 101 15 88 98
4 56 11 53 87
4 0 57 53 87
4 98 4 88 58
4 57 54 0 53
4 4 98 99 58
4 2 77 55 67
4 68 100 6 78
4 57 67 1 54
4 99 68 5 58
4 67 55 1 54
4 68 100 99 5
4 56 77 3 87
4 101 78 88 7
4 77 56 2 55
4 100 6 78 101
4 56 10 77 2
4 6 14 78 101
4 56 11 87 3
4 101 15 7 88
4 8 57 54 0
4 4 99 12 58
4 67 55 9 1
4 68 13 100 5
4 11 0 53 87
4 15 98 4 88
4 34 77 2 67
4 16 57 0 87
4 57 67 25 1
4 3 77 43 87
4 42 68 6 78
4 5 68 33 58
4 78 88 7 51
4 88 4 24 58
4 55 2 67 9
4 13 68 100 6
4 8 57 1 54
4 99 5 12 58
4 10 56 77 3
4 14 78 101 7
4 59 16 17 89
4 69 59 25 26
4 35 79 34 69
4 79 44 43 89
4 61 27 60 18
4 81 80 36 45
4 70 71 36 27
4 45 18 91 90
4 70 35 69 26
4 17 44 89 90
4 59 60 26 17
4 35 80 79 44
4 81 46 45 91
4 28 71 27 61
4 81 71 36 37
4 61 18 19 91
4 70 27 60 26
4 60 17 18 90
4 44 80 45 90
4 35 80 70 36
4 62 28 61 19
4 46 81 82 37
4 19 46 91 92
4 71 72 37 28
4 63 73 30 29
4 73 38 83 39
4 93 63 21 20
4 83 93 48 47
4 84 49 48 94
4 64 94 21 22
4 64 74 31 30
4 40 74 84 39
4 75 32 65 31
4 23 95 65 22
4 50 49 85 95
4 40 75 41 85
4 75 76 41 32
4 50 96 95 23
4 41 50 86 85
4 23 32 66 65
4 40 74 75 31
4 49 95 94 22
4 49 40 84 85
4 64 65 31 22
4 33 76 32 66
4 86 50 96 51
4 76 42 41 86
4 23 96 24 66
4 63 64 30 21
4 93 48 94 21
4 84 83 39 48
4 73 74 39 30
4 82 38 83 47
4 38 72 73 29
4 20 93 47 92
4 63 29 62 20
4 72 82 38 37
4 72 28 29 62
4 46 82 47 92
4 20 62 19 92
4 43 16 89 87
4 57 59 25 16
4 34 67 69 25
4 79 77 34 43
4 88 96 51 24
4 42 78 86 51
4 33 24 66 58
4 42 76 68 33

CELL_TYPES 255
10
10
10
10
10
10
10
10
10
10
10
10
10
10
10
10
10
10
10
10
10
10
10
10
10
10
10
10
10
10
10
10
10
10
10
10
10
10
10
10
10
10
10
10
10
10
10
10
10
10
10
10
10
10
10
10
10
10
10
10
10
10
10
10
10
10
10
10
10
10
10
10
10
10
10
10
10
10
10
10
10
10
10
10
10
10
10
10
10
10
10
10
10
10
10
10
10
10
10
10
10
10
10
10
10
10
10
10
10
10
10
10
10
10
10
10
10
10
10
10
10
10
10
10
10
10
10
10
10
10
10
10
10
10
10
10
10
10
10
10
10
10
10
10
10
10
10
10
10
10
10
10
10
10
10
10
10
10
10
10
10
10
10
10
10
10
10
10
10
10
10
10
10
10
10
10
10
10
10
10
10
10
10
10
10
10
10
10
10
10
10
10
10
10
10
10
10
10
10
10
10
10
10
10
10
10
10
10
10
10
10
10
10
10
10
10
10
10
10
10
10
10
10
10
10
10
10
10
10
10
10
10
10
10
10
10
10
10
10
10
10
10
10
10
10
10
10
10
10
10
10
10
10
10
10

CELL_DATA 255
SCALARS dataset float 1
LOOKUP_TABLE default
1
1
1
1
1
1
1
1
1
1
1
1
1
1
1
1
1
1
1
1
1
1
1
1
1
1
1
1
1
1
1
1
1
1
1
1
1
1
1
1
1
1
1
1
1
1
1
1
1
1
1
1
1
1
1
1
1
1
1
1
1
1
1
1
1
1
1
1
1
1
1
1
1
1
1
1
1
1
1
1
1
1
1
1
1
1
1
1
1
1
1
1
1
1
1
1
1
1
1
1
1
1
1
1
1
1
1
1
1
1
1
1
1
1
1
1
1
1
1
1
1
1
1
1
1
1
1
1
1
1
1
1
1
1
1
1
1
1
1
1
1
1
1
1
1
1
1
1
1
1
1
1
1
1
1
1
1
1
1
1
1
1
1
1
1
1
1
1
1
1
1
1
1
1
1
1
1
1
1
1
1
1
1
1
1
1
1
1
1
1
1
1
1
1
1
1
1
1
1
1
1
1
1
1
1
1
1
1
1
1
1
1
1
1
1
1
1
1
1
1
1
1
1
1
1
1
1
1
1
1
1
1
1
1
1
1
1
1
1
1
1
1
1
1
1
1
1
1
1
1
1
1
1
1
1
