# vtk DataFile Version 2.0
Exported by getfem++
ASCII
DATASET UNSTRUCTURED_GRID
POINTS 60 float 
0.02 0 0
0 0.02 0
-0.02 0 0
0 -0.02 0
0.02 0 0.15
0 0.02 0.15
-0.02 0 0.15
0 -0.02 0.15
0.02 0 0.3
0 0.02 0.3
-0.02 0 0.3
0 -0.02 0.3
0.014142135623758 0.014142135623704 0
-0.014142135623704 0.014142135623758 0
-0.014142135623758 -0.014142135623704 0
0.014142135623704 -0.014142135623758 0
0.014142135623758 0.014142135623704 0.15
-0.014142135623704 0.014142135623758 0.15
-0.014142135623758 -0.014142135623704 0.15
0.014142135623704 -0.014142135623758 0.15
0.02 0 0.049999999999877
0.02 0 0.099999999999874
0 0.02 0.049999999999877
0 0.02 0.099999999999874
-0.02 0 0.049999999999877
-0.02 0 0.099999999999874
0 -0.02 0.049999999999877
0 -0.02 0.099999999999874
0.014142135623758 0.014142135623704 0.3
-0.014142135623704 0.014142135623758 0.3
-0.014142135623758 -0.014142135623704 0.3
0.014142135623704 -0.014142135623758 0.3
0.02 0 0.19999999999985
0.02 0 0.24999999999986
0 0.02 0.19999999999985
0 0.02 0.24999999999986
-0.02 0 0.19999999999985
-0.02 0 0.24999999999986
0 -0.02 0.19999999999985
0 -0.02 0.24999999999986
0 0 0
0.0083818505738473 -0.0034718761854817 0
0.0046080717544002 0.008470140613579 0
-0.0084011297068176 0.0046134343661429 0
-0.0034879322539776 -0.0083340169873761 0
0 0 0.15
0.0083818505738473 -0.0034718761854817 0.15
0.0046080717544002 0.008470140613579 0.15
-0.0084011297068176 0.0046134343661429 0.15
-0.0034879322539776 -0.0083340169873761 0.15
0 5.6445344256846e-20 0.3
0.0083818505738473 -0.0034718761854817 0.3
0.0046080717544002 0.008470140613579 0.3
-0.0084011297068176 0.0046134343661429 0.3
-0.0034879322539776 -0.0083340169873761 0.3
-0.006666667208539 5.14576802496e-10 0.22526643674477
1.9445650316387e-19 8.1023542984945e-19 0.12635242734437
0.0024558765438655 -0.0059247162995989 0.026630113480103
2.2686592035778e-19 -8.3859366989393e-19 0.27635242734436
-1.8230297171715e-19 4.0309212635236e-19 0.1736475726555

CELLS 138 690
4 43 40 42 57
4 48 45 49 56
4 42 40 41 57
4 49 45 46 56
4 44 40 43 57
4 20 15 26 57
4 23 21 16 56
4 48 47 45 56
4 47 46 45 56
4 40 44 41 57
4 15 3 26 57
4 16 21 4 56
4 43 42 1 57
4 48 49 6 56
4 14 26 3 57
4 21 27 19 56
4 21 19 4 56
4 14 24 26 57
4 0 15 20 57
4 23 16 5 56
4 42 41 0 57
4 49 46 19 56
4 44 43 2 57
4 42 12 1 57
4 43 13 2 57
4 17 48 6 56
4 48 5 47 56
4 18 49 7 56
4 26 27 22 24
4 20 27 22 26
4 23 20 21 27
4 22 12 20 57
4 19 27 7 56
4 25 23 17 56
4 12 0 20 57
4 14 2 24 57
4 17 23 5 56
4 13 43 1 57
4 23 20 27 22
4 22 27 25 24
4 22 27 23 25
4 24 13 22 57
4 25 18 27 56
4 1 12 22 57
4 24 2 13 57
4 18 7 27 56
4 17 6 25 56
4 6 49 18 56
4 47 4 46 56
4 13 1 22 57
4 6 18 25 56
4 44 15 41 57
4 17 5 48 56
4 42 0 12 57
4 44 2 14 57
4 49 19 7 56
4 0 41 15 57
4 4 19 46 56
4 5 16 47 56
4 44 14 3 57
4 16 4 47 56
4 20 26 22 57
4 22 26 24 57
4 23 27 21 56
4 44 3 15 57
4 23 25 27 56
4 37 36 35 55
4 35 36 34 55
4 37 38 36 55
4 37 38 55 39
4 53 50 54 58
4 48 49 45 59
4 54 50 51 58
4 49 46 45 59
4 53 52 50 58
4 48 45 47 59
4 33 28 35 58
4 34 16 32 59
4 51 50 52 58
4 47 45 46 59
4 8 28 33 58
4 32 16 4 59
4 53 54 10 58
4 48 6 49 59
4 31 33 39 58
4 32 19 38 59
4 31 8 33 58
4 4 19 32 59
4 9 35 28 58
4 5 16 34 59
4 33 55 35 34
4 55 33 32 34
4 55 32 39 38
4 33 55 32 39
4 54 51 31 58
4 19 46 49 59
4 29 53 10 58
4 17 6 48 59
4 52 53 9 58
4 48 47 5 59
4 30 54 11 58
4 18 7 49 59
4 31 39 11 58
4 19 7 38 59
4 29 37 35 58
4 17 34 36 59
4 29 35 9 58
4 17 5 34 59
4 30 39 37 58
4 36 38 18 59
4 30 11 39 58
4 18 38 7 59
4 29 10 37 58
4 17 36 6 59
4 10 54 30 58
4 6 18 49 59
4 37 10 30 58
4 36 18 6 59
4 51 52 8 58
4 47 46 4 59
4 53 29 9 58
4 48 5 17 59
4 54 31 11 58
4 19 49 7 59
4 51 8 31 58
4 4 46 19 59
4 9 28 52 58
4 5 47 16 59
4 38 34 36 55
4 55 32 38 34
4 39 37 35 55
4 33 55 39 35
4 8 52 28 58
4 47 4 16 59
4 33 35 39 58
4 39 35 37 58
4 38 34 32 59
4 36 34 38 59

CELL_TYPES 138
10
10
10
10
10
10
10
10
10
10
10
10
10
10
10
10
10
10
10
10
10
10
10
10
10
10
10
10
10
10
10
10
10
10
10
10
10
10
10
10
10
10
10
10
10
10
10
10
10
10
10
10
10
10
10
10
10
10
10
10
10
10
10
10
10
10
10
10
10
10
10
10
10
10
10
10
10
10
10
10
10
10
10
10
10
10
10
10
10
10
10
10
10
10
10
10
10
10
10
10
10
10
10
10
10
10
10
10
10
10
10
10
10
10
10
10
10
10
10
10
10
10
10
10
10
10
10
10
10
10
10
10
10
10
10
10
10
10

CELL_DATA 138
SCALARS dataset float 1
LOOKUP_TABLE default
1
1
1
1
1
1
1
1
1
1
1
1
1
1
1
1
1
1
1
1
1
1
1
1
1
1
1
1
1
1
1
1
1
1
1
1
1
1
1
1
1
1
1
1
1
1
1
1
1
1
1
1
1
1
1
1
1
1
1
1
1
1
1
1
1
1
2
2
2
2
2
2
2
2
2
2
2
2
2
2
2
2
2
2
2
2
2
2
2
2
2
2
2
2
2
2
2
2
2
2
2
2
2
2
2
2
2
2
2
2
2
2
2
2
2
2
2
2
2
2
2
2
2
2
2
2
2
2
2
2
2
2
2
2
2
2
2
2
