# vtk DataFile Version 2.0
Exported by getfem++
ASCII
DATASET UNSTRUCTURED_GRID
POINTS 76 float 
0.05 0.075 0.01
0.05 0.075 0
0.05 -0.075 0.01
0.05 -0.075 0
-0.05 0.075 0.01
-0.05 0.075 0
-0.05 -0.075 0.01
-0.05 -0.075 0
0.05 0.045000000000072 0.01
0.05 0.0150000000001549 0.01
0.05 -0.0149999999998424 0.01
0.05 -0.0449999999999237 0.01
0.0250000000000603 0.075 0.01
1.32754918169553e-13 0.075 0.01
-0.0249999999999329 0.075 0.01
0.05 0.045000000000072 0
0.05 0.0150000000001549 0
0.05 -0.0149999999998424 0
0.05 -0.0449999999999237 0
0.0250000000000603 0.075 0
1.32754918169553e-13 0.075 0
-0.0249999999999329 0.075 0
0.0250000000000603 -0.075 0.01
1.32754918169553e-13 -0.075 0.01
-0.0249999999999329 -0.075 0.01
0.0250000000000603 -0.075 0
1.32754918169553e-13 -0.075 0
-0.0249999999999329 -0.075 0
-0.05 0.045000000000072 0.01
-0.05 0.0150000000001549 0.01
-0.05 -0.0149999999998424 0.01
-0.05 -0.0449999999999237 0.01
-0.05 0.045000000000072 0
-0.05 0.0150000000001549 0
-0.05 -0.0149999999998424 0
-0.05 -0.0449999999999237 0
0.0363406400741693 0.0621940277728911 0.01
-0.0363406402325687 0.0621940277206857 0.01
-2.00899904351237e-09 0.0565886732558534 0.01
0.0179255227823947 0.0532577472584235 0.01
-0.0179255255916641 0.0532577456976733 0.01
0.0300379242622832 0.0370596517962827 0.01
-0.0300379243264366 0.0370596503345299 0.01
-1.77189648370435e-10 0.0277844525882035 0.01
-0.0210645816229291 0.0184172016880394 0.01
0.0210645814836848 0.0184172016707493 0.01
3.98737275836281e-11 0.00138744540229215 0.01
0.0249380372874807 -0.00664024358189211 0.01
-0.0249380378641761 -0.006640243603083 0.01
-4.30298628326109e-10 -0.0258383839762025 0.01
-0.0254174122800107 -0.030639735425588 0.01
0.025417412117678 -0.0306397359690246 0.01
-1.15525308503478e-10 -0.0523132208135033 0.01
-0.0221407120216168 -0.0531129201330466 0.01
0.0221407113370993 -0.0531129209037083 0.01
0.0363406401096268 0.0621940275910745 0
-0.0363406401863085 0.0621940275599103 0
-7.73430746531245e-10 0.0565886769363746 0
0.017925524908542 0.0532577488228174 0
-0.0179255257350383 0.0532577477097964 0
0.0300379238577757 0.0370596434380542 0
-0.0300379244284718 0.0370596425654548 0
-1.54390215889588e-11 0.0277844521750455 0
-0.0210645840261401 0.0184171990900807 0
0.0210645843635981 0.0184171988916387 0
-2.51898986045052e-10 0.00138744604998647 0
-0.0249380400271834 -0.00664024389323958 0
0.0249380394984136 -0.00664024426100819 0
-3.01870821742267e-10 -0.0258383793066343 0
-0.0254174093179898 -0.0306397350114511 0
0.0254174088080847 -0.0306397351775376 0
4.80671148283401e-10 -0.0523132241052698 0
0.0221407101054554 -0.0531129206560045 0
-0.0221407103737413 -0.0531129215106194 0
-0.0313240975504233 -0.0178889537036362 0.00501293539982411
0.0195915445193493 -0.0199098902009085 0.00508556439520671

CELLS 172 860
4 49 47 51 75
4 68 70 67 75
4 50 30 48 74
4 66 34 69 74
4 49 68 47 75
4 47 68 67 75
4 50 34 30 74
4 69 34 50 74
4 58 36 8 55
4 37 59 32 56
4 51 47 67 75
4 70 51 67 75
4 2 22 54 25
4 73 24 7 27
4 5 32 56 37
4 66 69 48 74
4 69 50 48 74
4 8 36 0 55
4 8 58 55 15
4 39 8 58 36
4 37 32 40 28
4 59 37 32 40
4 68 65 48 46
4 65 68 47 46
4 11 3 54 18
4 63 44 29 48
4 47 45 9 64
4 31 7 35 53
4 10 9 17 67
4 34 66 30 74
4 10 47 9 67
4 54 18 3 72
4 34 66 29 30
4 68 48 49 46
4 68 49 47 46
4 33 66 63 29
4 9 64 16 67
4 66 63 29 48
4 9 47 64 67
4 24 7 6 53
4 2 54 3 25
4 54 3 25 72
4 24 73 7 53
4 25 54 23 22
4 66 48 30 74
4 17 11 51 18
4 17 11 10 51
4 34 66 33 29
4 9 16 17 67
4 29 66 48 30
4 11 3 2 54
4 31 7 53 6
4 73 35 7 53
4 39 60 8 41
4 28 61 40 42
4 66 68 65 48
4 68 65 47 67
4 34 35 50 30
4 50 35 31 30
4 51 18 70 17
4 73 24 27 23
4 45 65 47 46
4 65 44 48 46
4 61 28 40 32
4 40 61 32 59
4 8 60 58 15
4 60 39 8 58
4 69 68 49 71
4 68 49 71 70
4 62 61 63 44
4 45 62 60 64
4 65 45 43 46
4 44 65 43 46
4 57 62 58 38
4 62 57 59 38
4 5 32 37 4
4 15 0 1 55
4 59 21 14 13
4 19 13 58 12
4 61 62 40 43
4 43 62 39 60
4 40 61 43 42
4 41 43 39 60
4 34 35 69 50
4 49 52 71 70
4 52 69 49 71
4 52 49 51 70
4 69 50 52 49
4 65 45 47 64
4 44 65 48 63
4 9 45 60 64
4 61 63 44 29
4 59 21 13 20
4 19 13 20 58
4 61 62 59 40
4 62 58 39 60
4 62 45 65 64
4 62 63 65 44
4 45 62 43 60
4 62 61 44 43
4 61 44 43 42
4 45 43 41 60
4 21 5 56 37
4 40 62 38 43
4 62 38 43 39
4 37 32 28 4
4 15 0 55 8
4 25 23 72 26
4 27 73 23 26
4 45 41 9 60
4 44 61 29 42
4 68 49 70 75
4 55 0 12 36
4 62 59 40 38
4 62 58 38 39
4 45 62 65 43
4 65 62 44 43
4 60 9 64 16
4 61 33 63 29
4 63 66 65 48
4 47 65 64 67
4 69 68 48 49
4 61 28 29 42
4 9 41 8 60
4 49 51 70 75
4 50 69 52 53
4 54 52 51 70
4 73 69 52 71
4 71 54 70 52
4 40 59 14 13
4 58 13 39 12
4 68 66 69 48
4 57 59 13 20
4 58 57 13 20
4 33 61 28 29
4 8 9 60 16
4 33 61 32 28
4 8 60 15 16
4 50 69 48 49
4 54 25 23 72
4 24 73 53 23
4 57 59 38 13
4 58 38 13 57
4 54 71 70 72
4 69 73 52 53
4 12 1 55 19
4 14 5 21 37
4 51 10 17 67
4 11 18 54 51
4 10 51 47 67
4 71 23 26 72
4 23 73 71 26
4 35 50 31 53
4 70 54 18 51
4 37 21 59 56
4 55 12 58 36
4 70 51 17 67
4 59 40 38 13
4 38 58 13 39
4 35 69 50 53
4 73 52 23 71
4 52 54 23 71
4 54 70 18 72
4 0 55 12 1
4 14 5 37 4
4 35 73 69 53
4 73 52 53 23
4 54 23 71 72
4 21 37 59 14
4 55 12 19 58
4 59 37 40 14
4 58 39 36 12

CELL_TYPES 172
10
10
10
10
10
10
10
10
10
10
10
10
10
10
10
10
10
10
10
10
10
10
10
10
10
10
10
10
10
10
10
10
10
10
10
10
10
10
10
10
10
10
10
10
10
10
10
10
10
10
10
10
10
10
10
10
10
10
10
10
10
10
10
10
10
10
10
10
10
10
10
10
10
10
10
10
10
10
10
10
10
10
10
10
10
10
10
10
10
10
10
10
10
10
10
10
10
10
10
10
10
10
10
10
10
10
10
10
10
10
10
10
10
10
10
10
10
10
10
10
10
10
10
10
10
10
10
10
10
10
10
10
10
10
10
10
10
10
10
10
10
10
10
10
10
10
10
10
10
10
10
10
10
10
10
10
10
10
10
10
10
10
10
10
10
10
10
10
10
10
10
10

CELL_DATA 172
SCALARS dataset float 1
LOOKUP_TABLE default
1
1
1
1
1
1
1
1
1
1
1
1
1
1
1
1
1
1
1
1
1
1
1
1
1
1
1
1
1
1
1
1
1
1
1
1
1
1
1
1
1
1
1
1
1
1
1
1
1
1
1
1
1
1
1
1
1
1
1
1
1
1
1
1
1
1
1
1
1
1
1
1
1
1
1
1
1
1
1
1
1
1
1
1
1
1
1
1
1
1
1
1
1
1
1
1
1
1
1
1
1
1
1
1
1
1
1
1
1
1
1
1
1
1
1
1
1
1
1
1
1
1
1
1
1
1
1
1
1
1
1
1
1
1
1
1
1
1
1
1
1
1
1
1
1
1
1
1
1
1
1
1
1
1
1
1
1
1
1
1
1
1
1
1
1
1
1
1
1
1
1
1
