# vtk DataFile Version 3.0
vtk output
ASCII
DATASET POLYDATA
POINTS 543 float
187.278 161.183 114.31 186.071 161.233 114.965 183.651 161.34 116.291 
181.571 161.451 117.453 179.858 161.568 118.385 178.027 161.686 119.299 
176.086 161.634 120.261 174.185 161.277 121.229 172.363 160.745 122.006 
170.581 160.171 122.503 168.59 159.557 123.049 166.161 158.889 124.011 
163.865 158.307 125.12 162.844 158.058 125.652 162.844 158.058 125.652 
163.019 157.562 126.313 163.432 156.365 127.98 163.914 154.907 130.174 
164.295 153.624 132.421 164.491 152.823 134.364 164.82 152.15 136.25 
165.347 151.442 138.119 165.846 150.608 139.947 166.136 149.451 141.613 
166.25 147.928 142.997 166.468 146.277 144.266 166.833 144.617 145.273 
167.37 142.47 145.986 167.996 139.957 146.507 168.301 138.728 146.712 
162.844 158.058 125.652 161.957 158.348 125.297 159.814 158.967 124.527 
157.189 159.542 123.785 154.817 159.73 123.471 152.803 159.664 123.299 
150.833 159.792 122.621 148.978 160.203 121.789 147.114 160.959 121.034 
144.872 162.146 120.02 142.88 163.3 119.057 142.02 163.819 118.629 
142.02 163.819 118.629 141.167 163.743 118.337 139.016 163.572 117.681 
136.179 163.388 116.987 134.179 163.29 116.632 142.02 163.819 118.629 
142.35 164.6 118.543 143.215 166.497 118.318 144.43 168.841 118.006 
145.808 170.962 117.657 147.193 172.466 117.407 148.556 173.971 117.646 
149.764 175.555 118.064 150.938 177.118 118.642 151.985 178.613 119.558 
152.975 180.072 120.622 153.393 181.651 121.773 153.046 183.41 122.786 
152.815 185.116 123.879 152.775 187.112 124.29 152.51 189.098 124.641 
151.733 190.978 124.698 151.179 192.93 125.06 150.89 194.907 125.397 
134.179 163.29 116.632 134.593 163.636 115.913 135.475 164.454 114.125 
136.28 165.415 111.821 136.463 166.191 109.553 135.738 166.592 107.719 
135.07 167.138 105.938 134.361 167.958 104.265 133.604 168.759 102.605 
132.845 169.622 100.976 132.014 170.509 99.3985 131.049 171.494 97.9653 
130.132 172.706 96.698 128.71 174.195 95.2488 127.856 175.051 94.3928 
134.179 163.29 116.632 133.533 162.907 117.503 132.01 162.068 119.337 
130.232 161.237 120.964 128.542 160.699 121.792 126.794 160.199 123.002 
150.89 194.907 125.397 149.97 195.808 124.195 148.828 197.61 123.262 
147.987 199.433 122.972 147.143 200.969 121.963 146.192 202.424 120.875 
144.943 203.672 119.876 143.411 204.949 119.438 142.197 206.481 120.033 
140.913 208.067 120.428 139.878 208.657 121.811 138.682 208.722 123.531 
136.757 209.21 124.185 135.14 209.689 125.342 133.91 210.247 126.88 
132.579 210.967 127.983 130.89 212.113 128.561 158.937 123.58 137.262 
160.074 123.464 137.255 162.533 123.264 137.046 164.892 123.203 136.353 
166.461 123.461 135.138 167.427 123.918 133.477 167.89 124.384 131.569 
168.271 124.657 129.621 168.562 124.607 127.631 168.855 124.282 125.648 
169.808 124.267 124.107 171.438 125.087 123.004 172.6 125.594 121.447 
173.946 126.463 120.229 175.123 127.552 119.017 175.925 128.577 117.492 
176.17 128.023 115.665 158.937 123.58 137.262 157.858 124.397 137.047 
155.544 125.697 136.608 153.38 125.754 136.255 151.822 124.378 136.116 
149.983 123.463 135.999 148.244 122.36 136.036 146.82 120.937 135.69 
145.581 119.473 135.065 144.029 117.774 135.276 142.742 116.48 135.006 
158.937 123.58 137.262 158.064 122.832 137.552 156.246 121.099 138.097 
154.688 119.143 138.41 153.959 117.218 138.452 153.686 115.204 138.868 
153.211 113.58 140.057 151.987 112.238 141.07 191.944 147.294 158.6 
191.929 148.481 159.946 191.785 149.645 162.016 191.428 149.805 164.008 
190.949 149.401 166.024 191.944 147.294 158.6 193.603 146.812 157.913 
196.052 146.629 157.556 198.148 146.737 157.67 200.302 146.728 157.78 
202.365 146.539 158.271 204.259 145.846 157.432 206.268 145.168 157.357 
207.901 144.952 155.951 209.873 144.853 155.045 127.856 175.051 94.3928 
127.295 177.807 94.1521 126.236 180.133 94.0819 127.856 175.051 94.3928 
127.132 174.078 93.4349 125.762 172.99 91.6468 124.603 173.106 90.0176 
123.76 173.235 88.1975 122.914 173.327 86.3753 122.141 173.339 84.5194 
121.428 173.37 82.6391 120.689 173.479 80.7723 119.889 173.572 78.9308 
119.075 173.599 77.0926 118.301 173.53 75.2384 117.354 173.496 73.4703 
116.42 174.069 71.7958 115.363 174.482 70.209 114.938 174.553 68.2339 
114.156 174.705 66.3816 112.961 174.729 64.7877 126.794 160.199 123.002 
126.954 161.563 124.357 126.526 163.015 126.365 125.376 163.676 128.278 
126.794 160.199 123.002 126.46 159.112 122.121 125.521 157.053 120.874 
124.099 155.585 121.006 122.507 154.614 121.876 120.993 153.575 122.665 
119.559 152.34 123.405 118.254 151.04 124.089 116.44 149.409 124.391 
115.163 148.413 124.389 142.742 116.48 135.006 142.278 114.921 133.073 
141.563 113.675 131.058 140.464 111.681 130.276 142.742 116.48 135.006 
141.136 115.818 136.463 139.03 115.587 137.791 137.208 115.491 138.817 
126.236 180.133 94.0819 126.18 179.289 92.4711 126.5 178.153 89.4918 
127.462 177.366 87.3693 126.236 180.133 94.0819 124.872 179.532 95.1681 
122.844 179.023 97.5346 126.236 180.133 94.0819 127.583 183.404 94.6388 
112.961 174.729 64.7877 111.769 174.685 63.0602 110.839 174.919 61.1864 
110.084 175.126 59.2327 109.764 174.944 57.1597 112.961 174.729 64.7877 
112.993 173.297 64.8514 125.376 163.676 128.278 124.532 164.33 127.286 
122.713 165.56 125.876 120.873 166.425 125.512 119.273 167.245 124.57 
117.631 167.962 123.627 115.894 168.849 123.056 114.19 169.451 122.115 
112.382 170.043 121.391 110.592 170.669 120.775 108.675 171.226 120.462 
106.894 171.835 119.682 105 172.351 119.176 103.161 172.808 118.483 
101.527 173.952 117.988 99.997 175.118 117.346 98.4911 176.257 116.578 
96.8794 177.201 115.662 96.3033 178.22 114.065 125.376 163.676 128.278 
126.272 163.036 129.7 126.922 162.792 131.897 127.06 163.23 133.898 
127.355 163.996 135.693 127.116 165.725 136.719 126.881 167.553 137.781 
126.752 168.998 139.212 126.124 170.505 140.47 125.403 171.983 141.754 
124.652 173.329 143.023 115.163 148.413 124.389 113.985 148.084 125.796 
112.187 147.898 128.036 137.208 115.491 138.817 135.774 114.37 137.186 
133.657 112.845 136.801 131.796 111.154 136.781 137.208 115.491 138.817 
136.544 116.098 140.544 135.188 116.529 142.266 134.15 117.107 143.99 
133.079 117.359 145.769 132.402 117.033 147.672 131.633 116.118 149.405 
130.941 115.45 151.247 130.631 115.204 153.303 130.554 114.661 155.303 
122.844 179.023 97.5346 121.514 178.875 95.4853 119.165 178.784 94.9204 
127.583 183.404 94.6388 126.818 184.432 93.4411 125.969 186.348 92.3558 
125.618 188.305 92.2379 125.019 190.236 92.0078 123.954 191.943 92.299 
122.626 193.45 92.6036 121.284 194.938 93.0126 119.976 196.411 93.105 
119.064 198.056 94.004 127.583 183.404 94.6388 128.322 183.055 95.9845 
129.692 182.966 98.1596 130.835 183.475 99.7742 132.276 183.652 101.344 
133.717 183.598 100.602 135.343 183.476 99.2062 137.206 183.255 98.3033 
96.3033 178.22 114.065 96.2093 179.971 113.99 96.162 182.499 113.545 
96.0348 184.055 112.356 95.886 184.536 110.23 96.214 185.061 108.167 
96.1535 185.021 106.092 97.0182 185.244 104.147 98.521 184.49 103.232 
96.3033 178.22 114.065 95.5829 177.099 112.714 94.7202 176.297 110.283 
93.9415 176.404 108.161 92.9287 176.457 106.104 92.2362 176.427 103.944 
92.0269 176.363 101.649 124.652 173.329 143.023 123.301 174.544 142.514 
121.657 175.605 141.905 120.287 176.793 141.405 121.058 178.59 141.055 
121.338 180.539 140.717 121.217 182.431 140.195 120.724 184.246 139.659 
119.426 185.688 139.534 118.364 187.294 139.96 117.185 188.868 140.06 
115.902 190.359 140.258 114.781 191.791 140.747 114.423 193.539 139.813 
113.04 194.864 139.376 112.092 196.439 139.9 110.586 197.781 139.993 
112.187 147.898 128.036 112.239 146.248 128.845 111.846 144.594 130.232 
110.917 143.335 132.228 110.356 142.571 133.47 112.187 147.898 128.036 
111.522 149.55 127.841 110.612 151.937 128.198 109.831 153.413 129.569 
108.443 155.064 129.669 106.782 156.418 129.62 104.966 157.198 130.494 
103.463 158.349 131.558 101.837 159.525 132.972 100.562 160.25 134.168 
119.064 198.056 94.004 119.142 199.358 95.2474 119.333 201.204 96.288 
119.605 202.908 97.1881 119.195 203.909 98.8454 118.932 205.459 100.036 
118.549 207.037 101.145 117.659 208.089 102.441 116.467 208.502 103.993 
115.343 208.909 105.544 114.152 209.563 106.969 112.886 210.507 107.6 
119.064 198.056 94.004 117.818 197.826 93.0564 115.613 197.575 92.1053 
113.841 197.544 91.2732 112.358 197.954 90.0565 111.835 198.371 88.2058 
111.6 198.496 86.2322 111.252 198.602 84.2768 110.752 198.727 82.3555 
110.156 198.898 80.4591 110.208 199.214 78.5253 110.568 199.473 76.6213 
110.448 200.043 74.69 110.356 142.571 133.47 109.703 141.62 132.794 
108.358 139.754 131.557 107.076 138.325 130.659 105.683 137.634 129.393 
104.793 137.053 127.685 103.892 136.102 126.532 102.612 134.474 127.221 
101.618 132.908 126.402 100.508 131.526 125.465 99.6482 130.201 124.211 
98.9201 129.159 122.627 98.8925 129.11 120.742 99.7336 129.681 118.916 
110.356 142.571 133.47 110.391 142.655 135.376 110.439 142.712 138.098 
100.562 160.25 134.168 98.7015 160.374 133.501 96.8701 161.515 133.105 
95.1669 162.677 133.054 93.3547 163.656 133.232 91.7141 164.338 134.281 
90.9285 165.812 135.501 90.1831 167.275 136.731 88.8901 168.94 136.777 
100.562 160.25 134.168 101.447 160.903 136.388 100.385 162.064 138.49 
110.439 142.712 138.098 109.963 141.198 138.775 109.478 139.394 140.269 
109.128 138.166 142.202 108.653 136.934 143.473 110.439 142.712 138.098 
110.904 144.182 137.965 111.643 146.591 138.368 112.038 147.768 139.97 
112.406 148.56 141.796 112.65 149.279 143.674 112.686 149.993 145.57 
112.534 150.896 147.376 112.253 151.834 149.155 112.4 152.274 151.121 
112.509 152.605 153.117 112.629 152.915 155.116 112.778 153.507 157.048 
113.258 154.069 158.929 113.973 154.799 160.672 114.474 155.094 162.617 
115.111 155.753 164.42 115.719 156.154 166.308 115.999 156.002 168.302 
115.966 155.72 170.296 116.502 155.396 172.193 108.653 136.934 143.473 
108.042 137.279 145.399 107.277 137.384 147.684 106.241 137.457 149.647 
106.241 137.457 149.647 107.638 137.323 150.927 109.027 137.493 152.411 
110.397 137.598 153.823 111.633 137.718 155.348 112.884 137.843 156.861 
113.928 137.894 158.529 114.911 137.852 160.234 115.696 137.745 162.039 
116.499 137.646 163.835 117.468 137.575 165.546 118.656 137.715 167.083 
120.066 138.371 168.29 121.665 138.927 169.273 123.133 138.903 170.575 
124.065 138.83 172.287 124.796 139.015 174.086 126.422 138.722 175.119 
168.301 138.728 146.712 167.883 137.77 146.481 166.912 135.598 145.885 
165.815 133.262 145.068 164.856 131.522 144.162 163.778 130.206 143.242 
162.407 129.009 142.261 161.198 127.821 140.928 160.251 126.509 139.63 
159.536 124.944 138.819 158.937 123.58 137.262 168.301 138.728 146.712 
169.016 139.157 147.223 170.743 140.05 148.454 172.854 140.813 149.947 
174.75 140.887 151.246 176.625 140.682 151.906 178.562 140.476 152.493 
180.215 140.946 153.473 181.673 142.068 154.65 183.123 143.411 155.615 
184.728 144.612 156.062 186.478 145.59 156.455 188.207 146.067 157.34 
190.504 146.779 158 191.944 147.294 158.6 150.89 194.907 125.397 
151.634 195.351 126.806 152.556 196.373 128.734 153.381 197.412 130.186 
154.209 198.122 131.842 155.188 198.489 133.532 155.734 198.412 135.434 
155.953 197.946 137.361 155.937 197.395 139.279 155.859 197.006 141.233 
155.861 196.836 143.223 155.502 196.839 145.204 154.604 197.278 146.768 
153.592 198.118 148.263 152.172 198.579 149.608 150.52 198.85 150.76 
148.815 199.698 151.156 147.33 201.081 151.164 115.163 148.413 124.389 
115.175 147.893 123.291 115.059 146.673 121.096 114.616 145.26 119.377 
114.241 144.065 117.92 113.785 143.336 116.142 113.052 142.818 114.388 
112.337 142.05 112.716 111.587 141.002 111.222 111.117 139.863 109.677 
110.685 138.981 107.963 110.167 138.2 106.217 109.644 137.419 104.469 
109.134 136.278 102.956 108.532 134.787 101.759 108.113 132.98 101.119 
107.841 131.216 100.282 107.704 129.461 99.3857 107.679 127.902 98.2108 
107.636 126.659 96.6016 107.594 125.558 94.9313 107.542 124.724 93.1422 
107.533 123.871 91.3584 107.598 122.875 89.6757 124.652 173.329 143.023 
125.231 173.516 144.775 125.79 173.692 146.83 125.888 174.149 148.747 
125.639 174.791 150.616 125.057 175.51 152.378 124.5 176.28 154.125 
124.168 177.047 155.922 124.361 177.644 157.786 124.925 178.675 159.418 
102.899 192.717 111.157 104.82 192.091 111.14 106.701 191.324 111.208 
108.725 191.156 111.209 110.635 190.546 111.19 112.444 189.635 111.178 
114.355 189.027 111.053 116.153 188.452 110.255 117.597 187.373 109.131 
118.687 185.966 107.901 119.439 184.427 106.74 120.192 182.924 105.592 
121.168 181.555 104.456 122.17 180.47 103.038 122.099 179.417 101.297 
123.005 179.007 99.5658 122.844 179.023 97.5346 108.653 136.934 143.473 
108.739 135.217 143.331 108.445 132.836 143.443 107.853 130.924 143.441 
107.584 128.962 143.935 107.428 126.95 144.393 107.42 124.951 143.528 
107.444 123.822 141.831 106.241 137.457 149.647 104.536 137.584 148.815 
102.397 137.606 148.63 100.423 137.884 148.953 98.7119 138.942 149.521 
97.2214 140.201 150.127 95.4676 141.039 150.561 93.536 141.19 149.923 

LINES 55 598
14 0 1 2 3 4 5 6 7 8 9 10 11 12 13 
16 14 15 16 17 18 19 20 21 22 23 24 25 26 27 28 29 
12 30 31 32 33 34 35 36 37 38 39 40 41 
5 42 43 44 45 46 
19 47 48 49 50 51 52 53 54 55 56 57 58 59 60 61 62 63 64 65 
15 66 67 68 69 70 71 72 73 74 75 76 77 78 79 80 
6 81 82 83 84 85 86 
17 87 88 89 90 91 92 93 94 95 96 97 98 99 100 101 102 103 
17 104 105 106 107 108 109 110 111 112 113 114 115 116 117 118 119 120 
11 121 122 123 124 125 126 127 128 129 130 131 
8 132 133 134 135 136 137 138 139 
5 140 141 142 143 144 
10 145 146 147 148 149 150 151 152 153 154 
3 155 156 157 
18 158 159 160 161 162 163 164 165 166 167 168 169 170 171 172 173 174 175 
4 176 177 178 179 
10 180 181 182 183 184 185 186 187 188 189 
4 190 191 192 193 
4 194 195 196 197 
4 198 199 200 201 
3 202 203 204 
2 205 206 
5 207 208 209 210 211 
2 212 213 
19 214 215 216 217 218 219 220 221 222 223 224 225 226 227 228 229 230 231 232 
11 233 234 235 236 237 238 239 240 241 242 243 
3 244 245 246 
4 247 248 249 250 
10 251 252 253 254 255 256 257 258 259 260 
3 261 262 263 
10 264 265 266 267 268 269 270 271 272 273 
8 274 275 276 277 278 279 280 281 
9 282 283 284 285 286 287 288 289 290 
7 291 292 293 294 295 296 297 
17 298 299 300 301 302 303 304 305 306 307 308 309 310 311 312 313 314 
5 315 316 317 318 319 
10 320 321 322 323 324 325 326 327 328 329 
12 330 331 332 333 334 335 336 337 338 339 340 341 
13 342 343 344 345 346 347 348 349 350 351 352 353 354 
14 355 356 357 358 359 360 361 362 363 364 365 366 367 368 
3 369 370 371 
9 372 373 374 375 376 377 378 379 380 
3 381 382 383 
5 384 385 386 387 388 
21 389 390 391 392 393 394 395 396 397 398 399 400 401 402 403 404 405 406 407 408 409 
4 410 411 412 413 
18 414 415 416 417 418 419 420 421 422 423 424 425 426 427 428 429 430 431 
11 432 433 434 435 436 437 438 439 440 441 442 
15 443 444 445 446 447 448 449 450 451 452 453 454 455 456 457 
18 458 459 460 461 462 463 464 465 466 467 468 469 470 471 472 473 474 475 
24 476 477 478 479 480 481 482 483 484 485 486 487 488 489 490 491 492 493 494 495 496 497 498 499 
10 500 501 502 503 504 505 506 507 508 509 
17 510 511 512 513 514 515 516 517 518 519 520 521 522 523 524 525 526 
8 527 528 529 530 531 532 533 534 
8 535 536 537 538 539 540 541 542 

CELL_DATA 55
FIELD FieldData 1
Topology 2 55 vtkIdType
0 1 1 2 1 3 3 4 3 
5 4 8 4 9 5 -1 6 -1 
6 10 6 -1 7 -1 7 -1 8 
11 8 12 9 13 9 14 10 -1 
10 15 11 -1 11 16 11 17 12 
-1 12 -1 13 18 13 19 14 20 
15 27 15 -1 16 -1 17 21 17 
-1 18 -1 18 -1 19 -1 20 22 
20 23 21 -1 21 -1 22 -1 22 
24 23 -1 23 -1 24 25 24 -1 
25 26 26 -1 2 6 2 7 5 
-1 14 -1 19 -1 -1 28 25 -1 
26 -1 
POINT_DATA 543
TEXTURE_COORDINATES TCoords 2 float
0 0 0.0769231 0 0.153846 0 0.230769 0 0.307692 
0 0.384615 0 0.461538 0 0.538462 0 0.615385 0 
0.692308 0 0.769231 0 0.846154 0 0.923077 0 1 
0 0 0 0.0666667 0 0.133333 0 0.2 0 
0.266667 0 0.333333 0 0.4 0 0.466667 0 0.533333 
0 0.6 0 0.666667 0 0.733333 0 0.8 0 
0.866667 0 0.933333 0 1 0 0 0 0.0909091 
0 0.181818 0 0.272727 0 0.363636 0 0.454545 0 
0.545455 0 0.636364 0 0.727273 0 0.818182 0 0.909091 
0 1 0 0 0 0.25 0 0.5 0 
0.75 0 1 0 0 0 0.0555556 0 0.111111 
0 0.166667 0 0.222222 0 0.277778 0 0.333333 0 
0.388889 0 0.444444 0 0.5 0 0.555556 0 0.611111 
0 0.666667 0 0.722222 0 0.777778 0 0.833333 0 
0.888889 0 0.944444 0 1 0 0 0 0.0714286 
0 0.142857 0 0.214286 0 0.285714 0 0.357143 0 
0.428571 0 0.5 0 0.571429 0 0.642857 0 0.714286 
0 0.785714 0 0.857143 0 0.928571 0 1 0 
0 0 0.2 0 0.4 0 0.6 0 0.8 
0 1 0 0 0 0.0625 0 0.125 0 
0.1875 0 0.25 0 0.3125 0 0.375 0 0.4375 
0 0.5 0 0.5625 0 0.625 0 0.6875 0 
0.75 0 0.8125 0 0.875 0 0.9375 0 1 
0 0 0 0.0625 0 0.125 0 0.1875 0 
0.25 0 0.3125 0 0.375 0 0.4375 0 0.5 
0 0.5625 0 0.625 0 0.6875 0 0.75 0 
0.8125 0 0.875 0 0.9375 0 1 0 0 
0 0.1 0 0.2 0 0.3 0 0.4 0 
0.5 0 0.6 0 0.7 0 0.8 0 0.9 
0 1 0 0 0 0.142857 0 0.285714 0 
0.428571 0 0.571429 0 0.714286 0 0.857143 0 1 
0 0 0 0.25 0 0.5 0 0.75 0 
1 0 0 0 0.111111 0 0.222222 0 0.333333 
0 0.444444 0 0.555556 0 0.666667 0 0.777778 0 
0.888889 0 1 0 0 0 0.5 0 1 
0 0 0 0.0588235 0 0.117647 0 0.176471 0 
0.235294 0 0.294118 0 0.352941 0 0.411765 0 0.470588 
0 0.529412 0 0.588235 0 0.647059 0 0.705882 0 
0.764706 0 0.823529 0 0.882353 0 0.941176 0 1 
0 0 0 0.333333 0 0.666667 0 1 0 
0 0 0.111111 0 0.222222 0 0.333333 0 0.444444 
0 0.555556 0 0.666667 0 0.777778 0 0.888889 0 
1 0 0 0 0.333333 0 0.666667 0 1 
0 0 0 0.333333 0 0.666667 0 1 0 
0 0 0.333333 0 0.666667 0 1 0 0 
0 0.5 0 1 0 0 0 1 0 
0 0 0.25 0 0.5 0 0.75 0 1 
0 0 0 1 0 0 0 0.0555556 0 
0.111111 0 0.166667 0 0.222222 0 0.277778 0 0.333333 
0 0.388889 0 0.444444 0 0.5 0 0.555556 0 
0.611111 0 0.666667 0 0.722222 0 0.777778 0 0.833333 
0 0.888889 0 0.944444 0 1 0 0 0 
0.1 0 0.2 0 0.3 0 0.4 0 0.5 
0 0.6 0 0.7 0 0.8 0 0.9 0 
1 0 0 0 0.5 0 1 0 0 
0 0.333333 0 0.666667 0 1 0 0 0 
0.111111 0 0.222222 0 0.333333 0 0.444444 0 0.555556 
0 0.666667 0 0.777778 0 0.888889 0 1 0 
0 0 0.5 0 1 0 0 0 0.111111 
0 0.222222 0 0.333333 0 0.444444 0 0.555556 0 
0.666667 0 0.777778 0 0.888889 0 1 0 0 
0 0.142857 0 0.285714 0 0.428571 0 0.571429 0 
0.714286 0 0.857143 0 1 0 0 0 0.125 
0 0.25 0 0.375 0 0.5 0 0.625 0 
0.75 0 0.875 0 1 0 0 0 0.166667 
0 0.333333 0 0.5 0 0.666667 0 0.833333 0 
1 0 0 0 0.0625 0 0.125 0 0.1875 
0 0.25 0 0.3125 0 0.375 0 0.4375 0 
0.5 0 0.5625 0 0.625 0 0.6875 0 0.75 
0 0.8125 0 0.875 0 0.9375 0 1 0 
0 0 0.25 0 0.5 0 0.75 0 1 
0 0 0 0.111111 0 0.222222 0 0.333333 0 
0.444444 0 0.555556 0 0.666667 0 0.777778 0 0.888889 
0 1 0 0 0 0.0909091 0 0.181818 0 
0.272727 0 0.363636 0 0.454545 0 0.545455 0 0.636364 
0 0.727273 0 0.818182 0 0.909091 0 1 0 
0 0 0.0833333 0 0.166667 0 0.25 0 0.333333 
0 0.416667 0 0.5 0 0.583333 0 0.666667 0 
0.75 0 0.833333 0 0.916667 0 1 0 0 
0 0.0769231 0 0.153846 0 0.230769 0 0.307692 0 
0.384615 0 0.461538 0 0.538462 0 0.615385 0 0.692308 
0 0.769231 0 0.846154 0 0.923077 0 1 0 
0 0 0.5 0 1 0 0 0 0.125 
0 0.25 0 0.375 0 0.5 0 0.625 0 
0.75 0 0.875 0 1 0 0 0 0.5 
0 1 0 0 0 0.25 0 0.5 0 
0.75 0 1 0 0 0 0.05 0 0.1 
0 0.15 0 0.2 0 0.25 0 0.3 0 
0.35 0 0.4 0 0.45 0 0.5 0 0.55 
0 0.6 0 0.65 0 0.7 0 0.75 0 
0.8 0 0.85 0 0.9 0 0.95 0 1 
0 0 0 0.333333 0 0.666667 0 1 0 
0 0 0.0588235 0 0.117647 0 0.176471 0 0.235294 
0 0.294118 0 0.352941 0 0.411765 0 0.470588 0 
0.529412 0 0.588235 0 0.647059 0 0.705882 0 0.764706 
0 0.823529 0 0.882353 0 0.941176 0 1 0 
0 0 0.1 0 0.2 0 0.3 0 0.4 
0 0.5 0 0.6 0 0.7 0 0.8 0 
0.9 0 1 0 0 0 0.0714286 0 0.142857 
0 0.214286 0 0.285714 0 0.357143 0 0.428571 0 
0.5 0 0.571429 0 0.642857 0 0.714286 0 0.785714 
0 0.857143 0 0.928571 0 1 0 0 0 
0.0588235 0 0.117647 0 0.176471 0 0.235294 0 0.294118 
0 0.352941 0 0.411765 0 0.470588 0 0.529412 0 
0.588235 0 0.647059 0 0.705882 0 0.764706 0 0.823529 
0 0.882353 0 0.941176 0 1 0 0 0 
0.0434783 0 0.0869565 0 0.130435 0 0.173913 0 0.217391 
0 0.26087 0 0.304348 0 0.347826 0 0.391304 0 
0.434783 0 0.478261 0 0.521739 0 0.565217 0 0.608696 
0 0.652174 0 0.695652 0 0.73913 0 0.782609 0 
0.826087 0 0.869565 0 0.913043 0 0.956522 0 1 
0 0 0 0.111111 0 0.222222 0 0.333333 0 
0.444444 0 0.555556 0 0.666667 0 0.777778 0 0.888889 
0 1 0 0 0 0.0625 0 0.125 0 
0.1875 0 0.25 0 0.3125 0 0.375 0 0.4375 
0 0.5 0 0.5625 0 0.625 0 0.6875 0 
0.75 0 0.8125 0 0.875 0 0.9375 0 1 
0 0 0 0.142857 0 0.285714 0 0.428571 0 
0.571429 0 0.714286 0 0.857143 0 1 0 0 
0 0.142857 0 0.285714 0 0.428571 0 0.571429 0 
0.714286 0 0.857143 0 1 0 
FIELD FieldData 1
Radius 1 543 double
0 3.16293 6.32586 6.67356 6.5262 6.45534 6.4083 6.4352 6.45097 
6.32821 6.20545 6.16008 6.16008 6.16008 6.16008 5.53807 4.91606 4.29405 
3.67205 3.57754 3.58917 3.6568 3.68631 3.65668 3.55323 3.41346 3.34326 
3.34623 3.34623 3.34623 6.16008 5.9145 5.66893 5.42336 5.20732 5.01105 
4.81549 4.66473 4.59157 4.59157 4.59157 4.59157 4.59157 4.86893 5.1463 
5.42366 5.42502 4.59157 3.98876 3.38595 2.78314 2.18033 2.08791 2.14279 
2.39502 2.76417 2.87857 2.86564 2.70302 2.32307 2.26098 2.25108 2.35327 
2.43824 2.48158 2.48158 5.42502 4.79077 4.15653 3.52228 2.88803 2.71854 
2.65011 2.51221 2.3012 2.16567 2.12499 2.21288 2.38759 2.40114 2.40114 
5.42502 5.04462 4.66422 4.28383 4.12794 4.08014 2.48158 2.02928 1.65233 
1.52061 1.6889 1.87301 1.85838 1.95492 2.10942 2.48243 2.3531 2.07903 
1.78296 1.71373 1.70981 1.72601 1.44379 2.6535 2.6535 2.6535 2.64373 
2.60942 2.64299 2.59975 2.5638 2.65807 2.81546 2.67375 2.36147 2.01014 
1.55049 1.38756 1.39519 0.851414 2.6535 2.44279 2.23208 1.97008 1.49978 
1.44144 1.46869 1.61879 1.84121 1.88914 1.88914 2.6535 2.16956 1.68563 
1.27718 1.27222 1.45029 1.61917 1.73985 2.04722 2.04722 1.97723 1.78501 
1.50018 2.04722 2.24027 2.21545 2.01156 2.0693 2.24864 2.08897 1.95692 
1.85624 1.67982 2.40114 3.3631 3.6879 2.40114 2.04806 1.70447 1.61008 
1.64018 1.68264 1.69258 1.68771 1.61616 1.50363 1.47232 1.51362 1.72108 
1.77619 1.70229 1.45064 1.33186 1.25072 4.08014 3.74173 3.50699 3.50442 
4.08014 3.5639 3.04766 2.8219 2.74495 2.73927 2.79695 3.12889 3.26542 
3.26542 1.88914 1.73138 1.46422 1.20201 1.88914 1.71242 1.69459 1.69459 
3.6879 2.49748 1.30706 0.54878 3.6879 2.77969 2.18197 3.6879 3.83314 
1.25072 1.2897 1.37786 1.42827 1.15138 1.25072 0.000154773 3.50442 2.88274 
2.26107 2.17144 2.11266 2.08119 1.82101 1.75653 1.86479 1.86505 1.87603 
1.85724 2.13682 2.18936 2.17794 2.17494 2.28443 2.49743 2.49743 3.50442 
3.46808 3.42998 3.41194 3.37737 3.13099 2.89953 2.70319 2.4048 2.30181 
2.30181 3.26542 3.46183 3.55665 1.69459 1.28843 1.05861 1.16478 1.69459 
2.00888 2.02692 1.95083 2.03408 1.98802 1.67593 1.53768 1.68522 1.79007 
2.18197 0.996007 0.000157375 3.83314 3.23522 2.88578 2.75555 2.61406 2.38161 
2.2516 2.44733 2.58354 2.60008 3.83314 2.90061 2.04569 1.93232 2.05643 
1.69342 1.26963 0.693353 2.49743 1.95853 1.57168 1.42357 1.17068 1.32892 
1.23409 0.824739 0.63504 2.49743 1.83166 1.2126 1.01393 1.26328 1.44138 
1.11811 2.30181 2.13159 2.03304 1.926 1.60453 1.60972 2.14444 2.56827 
2.55201 2.45653 2.25268 2.10522 1.81851 1.40711 1.61238 1.348 1.04449 
3.55665 2.97867 2.75968 2.76033 2.76033 3.55665 2.63434 1.98766 1.74257 
1.60358 1.66302 1.47926 1.31412 1.52565 1.52565 2.60008 2.02237 1.73731 
1.71242 1.5165 1.60038 1.97561 1.99319 1.72312 1.27929 0.992343 0.557149 
2.60008 1.52436 0.569607 1.14456 1.81697 1.99967 1.90777 1.73283 1.66171 
1.75385 1.74713 1.50025 0.932421 2.76033 2.28573 1.81113 1.5478 1.52856 
1.73162 1.73557 1.40576 1.47445 1.67333 1.83381 1.96677 1.69945 1.09666 
2.76033 3.41362 3.66252 1.52565 2.00399 1.83393 1.49186 1.73491 2.04518 
1.88989 1.56778 0.989126 1.52565 1.84271 1.51608 3.66252 3.08967 2.67728 
2.62854 2.62854 3.66252 2.85549 2.04846 1.81463 1.83062 1.67998 1.5222 
1.59681 1.93041 2.06831 2.15108 2.2736 2.49379 2.54464 2.41924 2.16926 
1.86432 1.4572 1.25025 1.19962 0.869256 2.62854 2.2497 2.10704 2.30868 
2.30868 2.00794 1.78537 1.49557 1.44674 1.65539 1.80081 1.83911 1.77791 
1.66686 1.58085 1.50081 1.4739 1.59135 1.76546 1.75 1.52268 1.26267 
3.34623 3.54268 3.73914 3.91235 3.78636 3.66038 3.30799 3.60845 3.9089 
3.91782 2.6535 3.34623 3.06877 2.79132 2.51387 2.22671 1.9311 2.14747 
2.23023 2.313 2.39576 2.28398 2.16745 2.18091 2.14455 2.04722 2.48158 
1.94879 1.55579 1.32263 1.24959 1.33224 1.37773 1.19241 1.30742 1.63918 
1.76865 1.71913 1.62915 1.76808 1.70424 1.54955 1.20209 1.09235 3.26542 
2.80365 2.34189 1.98975 1.75641 1.73054 1.57404 1.56255 1.92722 2.13901 
2.1965 2.23376 2.3035 2.22786 1.95558 1.49591 1.35609 1.72572 1.78104 
1.82493 1.64263 1.06624 1.12872 1.2412 2.30181 2.05166 1.85251 1.62148 
1.55536 1.55239 1.59718 1.69362 1.69665 1.46726 0.000139775 0.714815 0.747607 
0.792721 0.844651 0.814282 0.955064 1.11292 1.27078 1.42863 1.26959 1.13797 
1.26778 1.55569 1.72461 1.49337 2.18197 2.62854 2.13468 1.82512 1.83585 
1.8552 1.82553 1.79469 1.45981 2.30868 1.78203 1.66966 1.60926 1.4247 
1.54148 1.80421 1.63373 
