# vtk DataFile Version 4.0
vtk output
ASCII
DATASET POLYDATA
POINTS 35 double
0.026887 -0.065521 -0.025507 0.012285 -0.064545 -0.025387 -0.01967 -0.072157 -0.012058 
-0.037788 -0.07178 -0.011484 -0.0037271 -0.071637 -0.012407 0.0086029 -0.071432 -0.014592 
-0.0047112 -0.071133 -0.018468 -0.0095672 -0.072138 -0.015371 0.056022 -0.069008 -0.016775 
0.066437 -0.068842 -0.018332 0.052343 -0.068782 -0.021135 -0.034336 -0.069936 -0.020041 
-0.021648 -0.070345 -0.020913 -0.038584 -0.072492 -0.015816 -0.04024 -0.068644 -0.019933 
0.0179 -0.070818 -0.014056 0.015251 -0.070471 -0.018996 -0.045153 -0.072387 -0.014614 
0.04599 -0.069388 -0.019856 0.039776 -0.070058 -0.014695 0.036969 -0.070204 -0.01842 
0.042659 -0.067103 -0.023522 -0.023833 -0.072316 -0.016579 -0.011608 -0.067391 -0.02302 
0.0015737 -0.06564 -0.025035 3.2503e-05 -0.068845 -0.022776 0.049131 -0.062726 -0.025298 
0.06381 -0.065476 -0.021341 0.028135 -0.0689 -0.021887 0.02745 -0.070619 -0.016472 
-0.050354 -0.071136 -0.016768 0.079059 -0.067274 -0.019832 0.076167 -0.065498 -0.022536 
0.038171 -0.063264 -0.025674 0.015725 -0.068034 -0.023301 
VERTICES 1 36
35 0 1 2 3 4 5 6 7 8 9 10 11 12 13 14 15 16 17 18 19 20 21 22 23 24 25 26 27 28 29 30 31 32 33 34 

POINT_DATA 35
FIELD FieldData 1
vtkOriginalPointIds 1 35 int
56 57 78 81 82 83 85 86 95 
96 98 124 125 126 127 133 135 141 
142 143 144 145 153 154 158 159 183 
185 187 188 209 212 213 221 232 
