# vtk DataFile Version 2.0
Exported by getfem++
ASCII
DATASET UNSTRUCTURED_GRID
POINTS 191 float 
0.02277497574687 -0.017644615843892 -0.015975207090378
0.016464028507471 -0.051044762134552 -0.025192148983479
0.0071886437945068 -0.013264093548059 -0.014439588412642
0.057529348880053 -0.0081847729161382 -0.0086796190589666
0.054280839860439 -0.013006546534598 -0.011475020088255
0.040466982871294 0.0050201462581754 -0.0066520357504487
0.047577526420355 0.0024249984417111 0.0079571921378374
0.060420032590628 -0.0055625312961638 0.0024392181076109
0.047812327742577 0.011972302570939 0.0091110281646252
0.037171848118305 -0.02324198000133 0.0041527398861945
0.051864292472601 -0.0055585787631571 0.0052366540767252
0.036382783204317 0.0075171017087996 0.010623598471284
0.042394571006298 -0.049657937139273 -0.024359555914998
0.061512719839811 -0.049847017973661 -0.021494191139936
0.039095751941204 -0.055906537920237 -0.025877900421619
0.035816084593534 -0.015298286452889 -0.014941846951842
0.028596121817827 0.0042347586713731 -0.008331953547895
0.038860633969307 -0.056575380265713 -0.0044946167618036
0.047711476683617 -0.032120436429977 -0.00028895947616547
0.022266089916229 -0.019571175798774 0.0068845683708787
0.064848870038986 -0.036568082869053 -0.017436694353819
-0.010468907654285 -0.051625553518534 -0.023919735103846
-0.00050103303510696 -0.059398420155048 -0.02558047324419
-0.012006505392492 -0.021436367183924 0.0079375961795449
0.0058367918245494 -0.0086027951911092 0.010154811665416
-0.022353705018759 0.0042800614610314 0.012564511038363
-0.029639190062881 -0.052982144057751 -0.022051896899939
-0.025835597887635 -0.016033036634326 -0.012708057649434
0.067712806165218 -0.0048197372816503 0.00097784725949168
0.075864993035793 -0.01789971999824 -0.0032787134405226
-0.027171529829502 -0.01799625530839 0.0081406682729721
-0.03656068444252 -0.013734128326178 0.0078394385054708
-0.03144308552146 -0.036520335823298 0.0031069435644895
-0.025903664529324 0.0039843805134296 -0.0058389455080032
0.0071963570080698 0.014203877188265 -0.0045986236073077
-0.0079279066994786 -0.01392035279423 -0.01374873612076
0.014965053647757 0.034507188946009 0.0045023993588984
0.053561948239803 -0.050308059900999 -0.0059493100270629
0.060689330101013 -0.034770835191011 -0.0033012344501913
0.024258386343718 -0.059912540018559 -0.026397623121738
0.026887034997344 -0.065521217882633 -0.025506652891636
-0.00085134716937318 -0.064746372401714 -0.025147149339318
-0.026042131707072 0.033134207129478 0.0082820868119597
-0.022949647158384 0.02569467201829 0.0029819484334439
-0.038524612784386 0.02125028334558 0.0039029261097312
-0.047469723969698 -0.0026006244588643 -0.0042071063071489
0.0048366165719926 0.044581711292267 0.012793799862266
-0.0028672264888883 0.034528743475676 0.0048463963903487
-0.0011976794339716 0.028825953602791 0.016319394111633
-0.020118314772844 0.021573474630713 0.015191114507616
0.0082910219207406 0.013586761429906 0.013706805184484
-0.049365352839231 0.0083813779056072 0.0013247497845441
-0.055847689509392 0.010792502202094 0.0060638836584985
-0.067955262959003 -0.041633903980255 -0.0034538581967354
-0.06896086782217 -0.063185274600983 -0.0093373125419021
-0.052251655608416 -0.047555614262819 -0.0018756655044854
-0.032649978995323 -0.068510130047798 -0.0075253783725202
-0.019670313224196 -0.072157092392445 -0.012058310210705
-0.012978200800717 -0.069267630577087 -0.0078041511587799
-0.028255665674806 -0.061153046786785 -0.0032152845524251
-0.045254975557327 -0.071563772857189 -0.011173201724887
6.6788670665119e-05 -0.071657612919807 -0.013292986899614
-0.010779364034534 -0.072257786989212 -0.015681501477957
-0.0022320104762912 -0.071129225194454 -0.018433583900332
0.056982763111591 -0.062640331685543 -0.010497795417905
0.042957153171301 -0.069789722561836 -0.014980000443757
0.069648094475269 -0.068363904953003 -0.019004756584764
0.052077196538448 -0.06716500967741 -0.012188955210149
0.053066968917847 -0.068830274045467 -0.020986804738641
-0.028679305687547 -0.062611274421215 -0.023504821583629
-0.062818594276905 -0.023882824927568 0.0016955423634499
-0.069039262831211 -0.009993826970458 0.0047290539368987
-0.074848890304565 -0.029041951522231 0.00067926308838651
-0.0082194581627846 -0.056123785674572 -0.0014172157971188
0.0053169461898506 -0.065846227109432 -0.0056681190617383
-0.074316568672657 -0.072250932455063 -0.015317763201892
-0.067715354263783 -0.064076267182827 -0.016268940642476
-0.05976239964366 -0.070225588977337 -0.017896914854646
-0.047813765704632 -0.072689026594162 -0.014400841668248
-0.045242000371218 -0.001627997495234 0.0099675692617893
-0.051685407757759 -0.025579383596778 0.0037762916181237
0.083772428333759 -0.04127598926425 -0.016336772590876
0.084360085427761 -0.028425069525838 -0.0097354063764215
0.094858907163143 -0.040830779820681 -0.013819823041558
-0.047898281365633 -0.070265851914883 -0.017592236399651
-0.024902978911996 -0.069651566445827 -0.021972453221679
-0.015637179836631 0.044124811887741 0.014293620362878
0.072263278067112 -0.022358948364854 -0.010211812332273
0.065988212823868 -0.0067777610383928 -0.0043255551718175
0.075059331953526 -0.016684964299202 -0.0058779455721378
-0.039049811661243 -0.037697147578001 -0.016023583710194
-0.064884923398495 -0.071601562201977 -0.012713806703687
0.032297622412443 -0.070562154054642 -0.017413532361388
0.040154255926609 -0.06777361035347 -0.023108750581741
-0.053041219711304 -0.051555566489697 -0.017152603715658
-0.049241956323385 -0.061439268290997 -0.019219923764467
0.023001937195659 0.023341357707977 0.014488773420453
0.016985733062029 -0.056562390178442 -0.0024015551898628
0.030113589018583 -0.063942804932594 -0.0066871340386569
-0.011607683263719 -0.067391097545624 -0.023019585758448
0.070020198822021 -0.023773070424795 -0.0039740218780935
-0.052690770477057 0.0069209500215948 0.009412313811481
-0.038970425724983 0.024270173162222 0.013796735554934
-0.078009910881519 -0.048108451068401 -0.0043059065937996
-0.078947842121124 -0.035925015807152 -0.0030634715221822
-0.051829975098372 -0.025534056127071 -0.01049885340035
-0.071985691785812 -0.023843586444855 -0.0027217753231525
-0.050816357135773 -0.064174257218838 -0.0071804155595601
-0.02172445692122 0.034124344587326 0.015789417549968
0.087794341146946 -0.05718506872654 -0.013335325755179
0.082143165171146 -0.065484665334225 -0.016625950112939
0.028880858793855 0.03263296931982 0.014710547402501
0.015203553251922 0.043749444186687 0.017153667286038
0.002115850104019 0.038506709039211 0.016280340030789
0.010737465694547 -0.032336670905352 0.0043302495032549
0.092367500066757 -0.051541920751333 -0.012982270680368
0.049024183303118 -0.062697105109692 -0.025310540571809
0.063912346959114 -0.0637092217803 -0.022239275276661
0.010645266622305 0.0279605332762 0.0012360468972474
0.038240645080805 0.022116297855973 0.0022329706698656
0.063736081123352 0.0047416901215911 0.0017088082386181
0.0067274780012667 0.047140505164862 0.016527805477381
-0.0050910417921841 0.04635738953948 0.018662681803107
0.02428181655705 -0.069340400397778 -0.010782169178128
-0.051035229116678 0.020287305116653 0.010319615714252
-0.06736496090889 -0.010755498893559 0.00070881529245526
0.076033473014832 -0.059825479984283 -0.022845435887575
-0.059037383645773 0.0070499628782272 0.0090264733880758
0.085244424641132 -0.054615788161755 -0.021050751209259
0.10138998925686 -0.064069107174873 -0.020755723118782
0.076955609023571 -0.064688593149185 -0.022631205618382
0.096628278493881 -0.053431309759617 -0.018725594505668
0.057597927749157 0.0088671240955591 0.0069287600927055
0.045014210045338 0.023228777572513 0.011653250083327
0.061481289565563 0.011614727787673 0.006743130274117
-0.045447189360857 0.029738949611783 0.016902031376958
0.032116506248713 0.037059504538774 0.013892752118409
0.052552416920662 0.025133039802313 0.01353881508112
0.050591509789228 0.027394231408834 0.012000232934952
0.0020130481570959 -0.068797245621681 -0.022718422114849
-0.077825836837292 -0.063116662204266 -0.012410807423294
-0.075626574456692 -0.046780839562416 -0.0086937556043267
0.091694615781307 -0.03478442505002 -0.0083486186340451
-0.03320224583149 0.037275213748217 0.017619555816054
0.027058683335781 0.038405820727348 0.01123040728271
-0.017517255619168 0.04202276840806 0.01761457696557
-0.010497601702809 0.047205552458763 0.017419463023543
0.10526544600725 -0.05391451343894 -0.016624350100756
-0.078600011765957 -0.064240880310535 -0.0090068876743317
-0.034782145172358 0.038273178040981 0.015734450891614
0.1049227565527 -0.055387362837791 -0.014393302612007
0.10196617990732 -0.066322587430477 -0.020121434703469
0.017302052094848 -0.058484756623822 -0.010303115971833
-0.0043838264891084 0.039928359853101 0.013025208362365
0.049094476751031 0.015523556660318 0.0064040717539966
-0.045624199807046 0.015186651709104 0.0075680040352807
0.057175354104127 0.0022784038905108 0.0014438503505611
0.093357324184356 -0.049071572226204 -0.015080666359203
0.03435887985413 -0.059383251326782 -0.016845266382577
0.069461189100747 -0.058514603947975 -0.017007782727909
-0.016412760983746 0.035405986178483 0.011228091127039
-0.014723080576732 -0.061352188384631 -0.014830271876359
-0.056508806427089 -0.063603904553737 -0.011767389255237
0.0045249030829553 -0.051841153033572 -0.01095910496567
-0.0658636116939 -0.026622470464316 -0.0014875879916332
0.018874007227193 -0.059996096006987 -0.01565134811985
0.010378131514707 -0.057134181726273 -0.018179857319189
0.087725574461727 -0.039515450322752 -0.012730471187126
-0.05339489172265 -0.0077386444813061 0.0010496113501964
-0.069767349985316 -0.065631003078499 -0.013744953649389
0.081967337284946 -0.059320577022643 -0.017730141925365
-0.036983670082692 0.029101998281246 0.012623045507955
0.066647415714037 -0.013860665748775 -0.0043282995903214
-0.048162584436471 -0.065242455647858 -0.01353014619818
0.015204827987468 0.037104892791633 0.012708910833854
0.0037302757524905 -0.060046461917573 -0.013104604049239
-0.07261387883503 -0.052198733445673 -0.0076891042543855
0.055223942348274 -0.064950704081022 -0.019919271118255
0.0047233136292966 0.040535793204906 0.014133239439551
-0.026979465366907 0.034648037441595 0.014071125041841
-0.03448769021974 -0.059417837123049 -0.015362982052407
-0.006336272157202 -0.058007471667829 -0.011395633401021
-0.050378488909705 0.0061992353456491 0.005495173440248
-0.072551776414989 -0.038749022189932 -0.0039526725620914
0.035696422894903 0.024989455336133 0.0072918248155956
-0.0043453017532224 -0.063783361822852 -0.014911882364961
0.093084605751837 -0.055479401569075 -0.017191655461605
0.044473930933319 -0.066043775305143 -0.019823665267516
0.076097072385817 -0.032750488936595 -0.011367998374203
0.07348408979525 -0.022102871558395 -0.0073958764813974
0.025994615450572 0.034707544294155 0.011070354231787

CELLS 598 2990
4 74 97 98 152
4 128 159 20 13
4 93 165 63 92
4 46 146 153 121
4 166 41 39 40
4 38 3 100 20
4 87 188 82 189
4 184 137 133 154
4 155 102 135 101
4 172 87 189 100
4 29 172 189 100
4 74 58 175 123
4 120 134 156 28
4 119 156 120 154
4 57 60 56 180
4 142 83 150 157
4 189 100 188 29
4 3 156 120 119
4 38 10 4 18
4 21 181 73 59
4 184 8 133 111
4 81 115 38 109
4 76 53 94 105
4 49 79 44 25
4 178 46 153 121
4 87 188 189 100
4 99 161 185 41
4 159 128 126 13
4 45 90 80 105
4 59 23 21 32
4 40 158 93 116
4 158 98 67 17
4 20 159 128 109
4 163 21 181 73
4 107 180 173 95
4 9 17 15 18
4 154 8 132 133
4 154 132 134 137
4 9 15 17 0
4 17 15 18 12
4 17 15 12 1
4 70 101 168 71
4 17 15 1 0
4 59 180 56 107
4 20 159 37 13
4 14 37 12 17
4 154 132 137 133
4 38 109 20 81
4 37 159 20 109
4 23 59 21 73
4 21 114 23 73
4 21 27 23 35
4 97 114 0 1
4 87 188 81 82
4 37 159 64 13
4 23 21 2 114
4 11 10 5 6
4 21 23 27 32
4 24 33 34 35
4 167 81 82 83
4 51 125 168 52
4 90 180 107 95
4 169 54 148 91
4 184 36 190 144
4 64 159 37 109
4 163 152 74 175
4 69 180 26 95
4 79 49 44 102
4 23 2 21 35
4 20 18 4 15
4 21 2 114 1
4 0 97 1 17
4 181 74 73 59
4 63 165 93 139
4 47 34 48 49
4 27 80 45 90
4 174 113 111 112
4 24 34 25 50
4 33 34 43 25
4 62 185 58 61
4 20 18 15 12
4 98 123 158 67
4 10 100 3 7
4 175 152 74 123
4 24 33 25 34
4 181 175 74 58
4 34 47 43 49
4 43 34 49 25
4 163 114 73 97
4 114 2 0 1
4 27 80 90 32
4 34 49 25 50
4 163 152 175 166
4 175 152 165 166
4 38 20 109 37
4 163 114 97 1
4 27 80 32 31
4 63 185 99 161
4 92 158 123 65
4 51 168 125 45
4 61 165 63 175
4 32 27 31 30
4 27 80 31 45
4 61 165 175 123
4 34 48 49 50
4 61 185 63 62
4 24 50 11 16
4 175 63 61 185
4 14 37 17 116
4 17 116 64 67
4 14 37 116 13
4 165 1 152 158
4 36 50 118 16
4 152 158 123 165
4 11 50 96 16
4 53 54 94 55
4 160 47 42 86
4 163 97 73 74
4 16 50 118 34
4 90 107 94 95
4 63 185 161 62
4 5 96 119 36
4 90 180 95 26
4 8 184 11 111
4 7 3 8 156
4 32 21 59 26
4 160 149 86 42
4 165 1 158 39
4 163 114 1 21
4 11 184 8 119
4 24 34 50 16
4 24 33 35 23
4 68 65 177 187
4 175 165 152 123
4 17 64 116 37
4 32 90 55 80
4 158 1 152 17
4 184 36 111 190
4 25 33 23 30
4 152 158 17 98
4 76 94 53 54
4 188 115 167 142
4 155 171 124 135
4 3 20 87 100
4 19 24 11 16
4 116 37 64 13
4 94 54 107 55
4 53 94 105 55
4 152 123 158 98
4 24 33 23 25
4 20 18 12 37
4 57 161 180 56
4 53 54 103 176
4 188 100 115 29
4 33 25 31 30
4 172 3 87 100
4 29 172 7 28
4 78 162 91 60
4 11 184 96 111
4 79 44 45 51
4 175 63 185 139
4 175 22 163 166
4 39 165 166 40
4 90 107 59 55
4 23 19 2 24
4 34 118 47 48
4 179 108 160 145
4 4 9 15 18
4 11 10 9 5
4 96 184 11 119
4 2 34 24 16
4 96 184 36 111
4 11 9 16 5
4 90 107 55 94
4 19 23 2 114
4 184 8 119 154
4 90 32 55 59
4 2 34 35 24
4 111 36 48 113
4 5 96 36 16
4 27 32 23 30
4 9 19 11 16
4 33 27 23 30
4 165 1 39 166
4 44 33 25 79
4 147 150 186 129
4 161 185 58 62
4 14 12 1 17
4 102 44 171 42
4 163 97 152 1
4 155 79 102 101
4 180 60 107 173
4 136 111 112 174
4 18 12 37 17
4 171 108 143 102
4 182 155 101 79
4 58 185 175 61
4 36 184 96 119
4 163 21 1 22
4 27 33 31 30
4 175 63 139 165
4 163 114 21 73
4 158 1 17 14
4 180 107 60 56
4 7 28 172 156
4 105 168 70 80
4 90 180 26 59
4 78 173 60 180
4 179 108 145 143
4 12 20 37 13
4 33 25 79 31
4 161 21 69 26
4 90 180 59 107
4 38 18 20 37
4 146 153 160 86
4 2 24 19 16
4 34 118 48 50
4 151 115 150 186
4 58 161 62 57
4 188 115 142 29
4 163 21 22 181
4 79 45 31 80
4 185 181 175 22
4 18 38 20 4
4 33 43 44 25
4 55 70 105 53
4 45 168 80 79
4 158 1 14 39
4 153 160 86 47
4 155 79 51 44
4 119 3 8 5
4 36 50 16 96
4 185 181 22 161
4 177 13 117 116
4 17 152 98 97
4 111 48 36 96
4 36 50 96 48
4 90 105 55 80
4 38 3 20 4
4 59 181 161 21
4 19 2 16 0
4 3 156 119 8
4 55 70 80 105
4 4 9 18 10
4 151 115 186 109
4 8 3 6 5
4 26 32 90 59
4 172 3 100 7
4 47 49 42 43
4 161 181 59 58
4 181 163 73 74
4 153 160 47 113
4 27 33 45 31
4 162 54 91 107
4 9 16 5 15
4 188 115 81 167
4 189 89 29 82
4 181 161 185 58
4 169 75 78 91
4 57 161 56 58
4 54 148 103 176
4 33 27 35 23
4 180 62 78 85
4 9 16 0 19
4 4 9 10 5
4 161 181 22 21
4 44 43 49 25
4 83 128 131 157
4 51 155 52 182
4 45 33 79 31
4 77 78 162 169
4 105 168 80 45
4 178 153 122 121
4 185 181 58 175
4 177 117 68 116
4 105 94 90 55
4 84 162 95 77
4 164 70 71 72
4 83 157 131 147
4 95 162 76 77
4 181 163 175 22
4 157 186 128 131
4 178 47 113 153
4 4 9 5 15
4 167 81 83 157
4 36 50 48 118
4 190 36 111 174
4 117 159 130 126
4 94 162 95 107
4 79 45 44 33
4 76 162 169 77
4 105 168 45 106
4 182 79 101 168
4 6 3 10 5
4 168 105 164 106
4 166 22 163 1
4 116 158 67 17
4 35 2 24 23
4 9 0 16 15
4 94 162 107 54
4 175 163 181 74
4 186 130 128 129
4 6 3 7 10
4 114 2 19 0
4 7 8 3 6
4 21 161 59 26
4 177 13 116 64
4 87 188 20 81
4 186 128 170 109
4 108 102 42 49
4 155 171 135 102
4 83 128 157 81
4 65 68 177 66
4 95 180 173 84
4 94 162 54 76
4 83 150 157 147
4 171 108 102 42
4 190 36 174 144
4 162 54 76 169
4 163 97 74 152
4 20 188 87 100
4 69 180 95 84
4 85 180 69 84
4 164 70 72 53
4 3 10 5 4
4 169 78 162 91
4 159 109 64 110
4 136 111 190 184
4 172 3 156 88
4 67 187 65 158
4 48 47 36 118
4 162 54 169 91
4 175 22 166 41
4 94 162 76 95
4 189 89 87 172
4 66 177 117 68
4 44 49 42 102
4 28 29 172 89
4 184 8 154 133
4 159 128 109 170
4 184 36 144 119
4 92 187 158 65
4 42 160 49 47
4 44 42 49 43
4 177 13 64 159
4 128 159 130 170
4 14 158 116 17
4 67 187 158 116
4 52 182 155 127
4 172 89 87 88
4 117 13 159 126
4 177 64 67 159
4 49 160 42 108
4 168 79 51 182
4 151 109 170 110
4 178 47 153 46
4 172 156 3 7
4 165 1 166 152
4 131 147 186 129
4 141 105 183 53
4 180 161 69 26
4 178 47 46 36
4 92 68 93 187
4 175 22 41 185
4 185 161 22 41
4 76 176 53 141
4 66 110 170 159
4 93 68 116 187
4 48 36 47 113
4 8 6 11 5
4 183 105 141 106
4 5 96 16 11
4 183 105 164 53
4 165 92 158 123
4 116 177 64 67
4 164 105 183 106
4 171 102 143 135
4 84 77 78 162
4 49 160 48 47
4 153 145 146 160
4 153 145 122 146
4 159 170 109 110
4 61 165 123 92
4 8 11 119 5
4 171 179 149 143
4 85 63 99 161
4 67 187 116 177
4 185 41 139 99
4 117 66 130 159
4 164 105 70 53
4 136 190 144 184
4 93 116 158 187
4 106 71 164 168
4 189 89 172 29
4 177 13 159 117
4 61 165 92 63
4 168 51 79 45
4 20 188 38 81
4 138 136 144 184
4 103 53 176 183
4 109 81 115 128
4 54 169 148 176
4 149 179 42 160
4 178 47 36 113
4 116 68 177 187
4 171 179 42 149
4 115 128 186 109
4 78 173 162 60
4 169 54 76 176
4 183 164 72 53
4 106 71 104 164
4 92 93 158 187
4 85 63 161 62
4 48 160 49 108
4 82 188 81 167
4 168 70 79 101
4 14 37 13 12
4 149 179 145 143
4 60 62 78 180
4 60 62 180 57
4 22 69 161 21
4 26 21 27 32
4 77 75 78 169
4 64 67 159 110
4 161 41 99 69
4 58 74 181 59
4 176 141 140 104
4 135 155 101 127
4 46 47 153 86
4 103 176 140 104
4 136 133 111 184
4 44 52 155 124
4 136 111 174 190
4 5 96 11 119
4 168 164 105 70
4 160 149 146 86
4 52 71 125 168
4 139 165 93 40
4 103 53 183 72
4 176 53 141 183
4 19 17 0 9
4 120 154 138 119
4 174 46 178 121
4 158 123 65 67
4 121 136 112 174
4 63 185 139 99
4 184 137 136 133
4 138 184 144 119
4 122 113 178 112
4 174 46 121 144
4 71 70 164 168
4 82 188 142 29
4 174 46 144 36
4 82 189 188 29
4 186 130 129 151
4 158 14 116 39
4 175 58 61 123
4 92 68 187 65
4 151 66 110 170
4 121 136 174 144
4 65 177 67 66
4 74 152 98 123
4 178 174 112 113
4 174 113 36 111
4 17 152 97 1
4 153 146 122 121
4 168 80 79 70
4 40 158 165 93
4 113 153 122 178
4 184 137 154 138
4 134 154 137 138
4 169 176 76 140
4 184 138 154 119
4 155 171 102 44
4 155 171 44 124
4 182 155 79 51
4 124 52 155 127
4 38 188 20 100
4 135 124 155 127
4 125 71 106 168
4 189 89 82 87
4 106 168 45 125
4 178 174 121 112
4 81 20 128 109
4 176 169 148 140
4 174 46 36 178
4 29 7 172 100
4 7 8 132 156
4 156 134 132 28
4 154 8 119 156
4 154 8 156 132
4 7 156 132 28
4 142 157 150 115
4 157 186 131 147
4 186 157 150 147
4 167 81 157 115
4 157 128 115 81
4 157 186 115 128
4 180 62 85 161
4 161 180 69 85
4 76 53 176 54
4 53 76 141 105
4 186 128 131 129
4 41 175 185 139
4 67 187 177 65
4 166 22 1 39
4 151 186 150 129
4 59 180 26 161
4 161 85 69 99
4 66 117 177 159
4 177 159 67 66
4 159 67 66 110
4 156 120 28 88
4 27 26 32 90
4 166 22 39 41
4 113 145 160 108
4 171 108 42 179
4 153 145 160 113
4 153 145 113 122
4 179 108 42 160
4 145 149 146 160
4 97 0 19 17
4 97 19 0 114
4 162 173 107 60
4 58 161 56 59
4 59 180 161 56
4 184 137 138 136
4 174 113 178 36
4 162 107 91 60
4 176 183 141 104
4 136 174 144 190
4 139 41 166 40
4 166 165 139 40
4 104 164 72 183
4 163 152 166 1
4 41 175 139 166
4 154 156 120 134
4 155 79 44 102
4 120 134 138 154
4 120 156 3 88
4 154 132 156 134
4 182 101 155 127
4 38 3 4 10
4 51 155 44 52
4 38 3 10 100
4 142 167 82 83
4 142 167 83 157
4 82 188 167 142
4 142 167 157 115
4 51 168 182 52
4 149 179 160 145
4 71 101 168 127
4 168 101 182 127
4 52 71 168 127
4 75 169 148 91
4 76 169 75 77
4 103 183 104 72
4 169 75 148 140
4 75 169 76 140
4 186 130 151 170
4 186 130 170 128
4 66 170 130 159
4 128 130 159 126
4 151 66 170 130
4 76 176 141 140
4 183 106 104 164
4 122 178 121 112
4 48 160 113 47
4 176 148 103 140
4 180 62 161 57
4 38 188 115 81
4 46 153 146 86
4 40 158 116 39
4 171 149 124 135
4 171 44 149 42
4 171 124 149 44
4 171 108 179 143
4 149 171 143 135
4 40 158 39 165
4 28 88 172 156
4 28 172 88 89
4 103 183 176 104
4 172 3 88 87
4 113 160 48 108
4 104 164 71 72
4 161 41 69 22
4 141 183 106 104
4 182 168 127 52
4 166 139 165 175
4 186 170 151 109
4 173 95 162 107
4 78 84 162 173
4 173 162 95 84
4 180 84 85 78
4 180 84 78 173
4 186 150 157 115
4 115 188 38 100
4 165 93 158 92

CELL_TYPES 598
10
10
10
10
10
10
10
10
10
10
10
10
10
10
10
10
10
10
10
10
10
10
10
10
10
10
10
10
10
10
10
10
10
10
10
10
10
10
10
10
10
10
10
10
10
10
10
10
10
10
10
10
10
10
10
10
10
10
10
10
10
10
10
10
10
10
10
10
10
10
10
10
10
10
10
10
10
10
10
10
10
10
10
10
10
10
10
10
10
10
10
10
10
10
10
10
10
10
10
10
10
10
10
10
10
10
10
10
10
10
10
10
10
10
10
10
10
10
10
10
10
10
10
10
10
10
10
10
10
10
10
10
10
10
10
10
10
10
10
10
10
10
10
10
10
10
10
10
10
10
10
10
10
10
10
10
10
10
10
10
10
10
10
10
10
10
10
10
10
10
10
10
10
10
10
10
10
10
10
10
10
10
10
10
10
10
10
10
10
10
10
10
10
10
10
10
10
10
10
10
10
10
10
10
10
10
10
10
10
10
10
10
10
10
10
10
10
10
10
10
10
10
10
10
10
10
10
10
10
10
10
10
10
10
10
10
10
10
10
10
10
10
10
10
10
10
10
10
10
10
10
10
10
10
10
10
10
10
10
10
10
10
10
10
10
10
10
10
10
10
10
10
10
10
10
10
10
10
10
10
10
10
10
10
10
10
10
10
10
10
10
10
10
10
10
10
10
10
10
10
10
10
10
10
10
10
10
10
10
10
10
10
10
10
10
10
10
10
10
10
10
10
10
10
10
10
10
10
10
10
10
10
10
10
10
10
10
10
10
10
10
10
10
10
10
10
10
10
10
10
10
10
10
10
10
10
10
10
10
10
10
10
10
10
10
10
10
10
10
10
10
10
10
10
10
10
10
10
10
10
10
10
10
10
10
10
10
10
10
10
10
10
10
10
10
10
10
10
10
10
10
10
10
10
10
10
10
10
10
10
10
10
10
10
10
10
10
10
10
10
10
10
10
10
10
10
10
10
10
10
10
10
10
10
10
10
10
10
10
10
10
10
10
10
10
10
10
10
10
10
10
10
10
10
10
10
10
10
10
10
10
10
10
10
10
10
10
10
10
10
10
10
10
10
10
10
10
10
10
10
10
10
10
10
10
10
10
10
10
10
10
10
10
10
10
10
10
10
10
10
10
10
10
10
10
10
10
10
10
10
10
10
10
10
10
10
10
10
10
10
10
10
10
10
10
10
10
10
10
10
10
10
10
10
10
10
10
10
10
10
10
10
10
10
10
10
10
10
10
10
10
10
10
10
10
10
10
10
10
10
10
10
10
10
10
10
10
10
10
10
10
10
10
10
10
10
10
10
10
10
10
10
10
10
10
10
10
10
10
10
10
10
10
10
10
10
10
10

CELL_DATA 598
SCALARS dataset float 1
LOOKUP_TABLE default
100
100
100
100
100
100
100
100
100
100
100
100
100
100
100
100
100
100
100
100
100
100
100
100
100
100
100
100
100
100
100
100
100
100
100
100
100
100
100
100
100
100
100
100
100
100
100
100
100
100
100
100
100
100
100
100
100
100
100
100
100
100
100
100
100
100
100
100
100
100
100
100
100
100
100
100
100
100
100
100
100
100
100
100
100
100
100
100
100
100
100
100
100
100
100
100
100
100
100
100
100
100
100
100
100
100
100
100
100
100
100
100
100
100
100
100
100
100
100
100
100
100
100
100
100
100
100
100
100
100
100
100
100
100
100
100
100
100
100
100
100
100
100
100
100
100
100
100
100
100
100
100
100
100
100
100
100
100
100
100
100
100
100
100
100
100
100
100
100
100
100
100
100
100
100
100
100
100
100
100
100
100
100
100
100
100
100
100
100
100
100
100
100
100
100
100
100
100
100
100
100
100
100
100
100
100
100
100
100
100
100
100
100
100
100
100
100
100
100
100
100
100
100
100
100
100
100
100
100
100
100
100
100
100
100
100
100
100
100
100
100
100
100
100
100
100
100
100
100
100
100
100
100
100
100
100
100
100
100
100
100
100
100
100
100
100
100
100
100
100
100
100
100
100
100
100
100
100
100
100
100
100
100
100
100
100
100
100
100
100
100
100
100
100
100
100
100
100
100
100
100
100
100
100
100
100
100
100
100
100
100
100
100
100
100
100
100
100
100
100
100
100
100
100
100
100
100
100
100
100
100
100
100
100
100
100
100
100
100
100
100
100
100
100
100
100
100
100
100
100
100
100
100
100
100
100
100
100
100
100
100
100
100
100
100
100
100
100
100
100
100
100
100
100
100
100
100
100
100
100
100
100
100
100
100
100
100
100
100
100
100
100
100
100
100
100
100
100
100
100
100
100
100
100
100
100
100
100
100
100
100
100
100
100
100
100
100
100
100
100
100
100
100
100
100
100
100
100
100
100
100
100
100
100
100
100
100
100
100
100
100
100
100
100
100
100
100
100
100
100
100
100
100
100
100
100
100
100
100
100
100
100
100
100
100
100
100
100
100
100
100
100
100
100
100
100
100
100
100
100
100
100
100
100
100
100
100
100
100
100
100
100
100
100
100
100
100
100
100
100
100
100
100
100
100
100
100
100
100
100
100
100
100
100
100
100
100
100
100
100
100
100
100
100
100
100
100
100
100
100
100
100
100
100
100
100
100
100
100
100
100
100
100
100
100
100
100
100
100
100
100
100
100
100
100
100
100
100
100
100
100
100
100
100
100
100
100
100
100
100
100
100
100
100
100
100
100
100
100
100
100
100
100
100
100
100
100
100
100
100
100
100
100
100
100
100
100
100
